Workflow id,Formula,Polar id,Nonpolar id,Polar Spacegroup,Nonpolar Spacegroup,Polarization,Energy Difference,Max Distortion,Band Gap
<a href="candidate.html?wfid=wfid_1476041128.167316">wfid_1476041128.167316</a>,SrTa2Bi2O9,<a href="https://materialsproject.org/materials/mp-23089/">mp-23089</a>,<a href="https://materialsproject.org/materials/mp-554675/">mp-554675</a>,36,139,37.0,0.028,0.546,2.503
<a href="candidate.html?wfid=wfid_1484445164.611735">wfid_1484445164.611735</a>,LiNiPO4,<a href="https://materialsproject.org/materials/mp-868169/">mp-868169</a>,<a href="https://materialsproject.org/materials/mp-32324/">mp-32324</a>,33,63,0.2,-0.000,0.083,3.397
<a href="candidate.html?wfid=wfid_1476040393.450782">wfid_1476040393.450782</a>,NaNbO3,<a href="https://materialsproject.org/materials/mp-558920/">mp-558920</a>,<a href="https://materialsproject.org/materials/mp-3671/">mp-3671</a>,29,57,31.9,-0.000,0.683,2.402
<a href="candidate.html?wfid=wfid_1484694837.128419">wfid_1484694837.128419</a>,VF5,<a href="https://materialsproject.org/materials/mp-766786/">mp-766786</a>,<a href="https://materialsproject.org/materials/mvc-14312/">mvc-14312</a>,9,15,30.0,0.022,1.582,3.215
<a href="candidate.html?wfid=wfid_1476040492.518912">wfid_1476040492.518912</a>,H8S(NO2)2,<a href="https://materialsproject.org/materials/mp-24468/">mp-24468</a>,<a href="https://materialsproject.org/materials/mp-23876/">mp-23876</a>,33,62,0.0,0.007,1.267,5.073
<a href="candidate.html?wfid=wfid_1476040231.867950">wfid_1476040231.867950</a>,Pr(HO)3,<a href="https://materialsproject.org/materials/mp-625452/">mp-625452</a>,<a href="https://materialsproject.org/materials/mp-626361/">mp-626361</a>,6,11,0.3,0.002,0.153,3.676
<a href="candidate.html?wfid=wfid_1476040415.883279">wfid_1476040415.883279</a>,InHO2,<a href="https://materialsproject.org/materials/mp-504535/">mp-504535</a>,<a href="https://materialsproject.org/materials/mp-632711/">mp-632711</a>,31,58,13.2,0.010,0.243,1.771
<a href="candidate.html?wfid=wfid_1476040203.326613">wfid_1476040203.326613</a>,Ag(CO)2,<a href="https://materialsproject.org/materials/mp-600237/">mp-600237</a>,<a href="https://materialsproject.org/materials/mp-654937/">mp-654937</a>,5,15,0.0,-0.002,0.328,0.980
<a href="candidate.html?wfid=wfid_1476040872.620729">wfid_1476040872.620729</a>,Ag2S,<a href="https://materialsproject.org/materials/mp-32669/">mp-32669</a>,<a href="https://materialsproject.org/materials/mp-32791/">mp-32791</a>,36,64,45.3,0.089,0.956,1.342
<a href="candidate.html?wfid=wfid_1476040947.794782">wfid_1476040947.794782</a>,BaTiO3,<a href="https://materialsproject.org/materials/mp-12992/">mp-12992</a>,<a href="https://materialsproject.org/materials/mp-2998/">mp-2998</a>,99,221,47.1,0.011,0.129,1.731
<a href="candidate.html?wfid=wfid_1484444968.854031">wfid_1484444968.854031</a>,Nb2Bi2PbO9,<a href="https://materialsproject.org/materials/mp-583454/">mp-583454</a>,<a href="https://materialsproject.org/materials/mp-23101/">mp-23101</a>,36,139,37.3,0.041,0.523,2.321
<a href="candidate.html?wfid=wfid_1484445017.971658">wfid_1484445017.971658</a>,Mn3B7IO13,<a href="https://materialsproject.org/materials/mp-31917/">mp-31917</a>,<a href="https://materialsproject.org/materials/mp-565322/">mp-565322</a>,29,219,2.8,0.005,0.471,3.696
<a href="candidate.html?wfid=wfid_1484444982.346272">wfid_1484444982.346272</a>,BaAl2O4,<a href="https://materialsproject.org/materials/mp-4202/">mp-4202</a>,<a href="https://materialsproject.org/materials/mp-3828/">mp-3828</a>,173,182,0.3,0.004,0.560,4.079
<a href="candidate.html?wfid=wfid_1476040217.741157">wfid_1476040217.741157</a>,K4CO4,<a href="https://materialsproject.org/materials/mp-551561/">mp-551561</a>,<a href="https://materialsproject.org/materials/mp-549869/">mp-549869</a>,5,121,16.6,0.006,0.608,1.989
<a href="candidate.html?wfid=wfid_1484445022.713113">wfid_1484445022.713113</a>,SiO2,<a href="https://materialsproject.org/materials/mp-555235/">mp-555235</a>,<a href="https://materialsproject.org/materials/mp-7087/">mp-7087</a>,9,194,0.1,0.008,0.784,5.503
<a href="candidate.html?wfid=wfid_1484445298.485748">wfid_1484445298.485748</a>,NaAlH2CO5,<a href="https://materialsproject.org/materials/mp-699136/">mp-699136</a>,<a href="https://materialsproject.org/materials/mp-644506/">mp-644506</a>,46,74,0.8,-0.001,0.082,5.030
<a href="candidate.html?wfid=wfid_1476041081.548433">wfid_1476041081.548433</a>,Cs4CO4,<a href="https://materialsproject.org/materials/mp-562815/">mp-562815</a>,<a href="https://materialsproject.org/materials/mp-605824/">mp-605824</a>,146,215,1.7,-0.003,0.294,1.629
<a href="candidate.html?wfid=wfid_1476040950.744757">wfid_1476040950.744757</a>,KNbO3,<a href="https://materialsproject.org/materials/mp-4342/">mp-4342</a>,<a href="https://materialsproject.org/materials/mp-935811/">mp-935811</a>,99,221,47.7,0.011,0.226,1.472
<a href="candidate.html?wfid=wfid_1476040190.49918">wfid_1476040190.49918</a>,SiO2,<a href="https://materialsproject.org/materials/mp-972808/">mp-972808</a>,<a href="https://materialsproject.org/materials/mp-559091/">mp-559091</a>,4,182,0.4,-0.010,1.296,5.592
<a href="candidate.html?wfid=wfid_1484444992.013915">wfid_1484444992.013915</a>,Ag3SI,<a href="https://materialsproject.org/materials/mp-675879/">mp-675879</a>,<a href="https://materialsproject.org/materials/mp-558189/">mp-558189</a>,4,221,0.7,0.041,0.772,0.260
<a href="candidate.html?wfid=wfid_1476040425.250661">wfid_1476040425.250661</a>,HfPbO3,<a href="https://materialsproject.org/materials/mp-669414/">mp-669414</a>,<a href="https://materialsproject.org/materials/mp-22734/">mp-22734</a>,32,55,19.7,-0.004,0.605,2.809
<a href="candidate.html?wfid=wfid_1476040865.547657">wfid_1476040865.547657</a>,U(HO2)2,<a href="https://materialsproject.org/materials/mp-626885/">mp-626885</a>,<a href="https://materialsproject.org/materials/mp-626864/">mp-626864</a>,36,64,2.9,-0.004,0.174,1.914
<a href="candidate.html?wfid=wfid_1476040756.894491">wfid_1476040756.894491</a>,InBiO3,<a href="https://materialsproject.org/materials/mp-556892/">mp-556892</a>,<a href="https://materialsproject.org/materials/mp-561102/">mp-561102</a>,33,62,63.7,0.011,1.400,2.749
<a href="candidate.html?wfid=wfid_1484444945.05931">wfid_1484444945.05931</a>,Li4CO4,<a href="https://materialsproject.org/materials/mp-550498/">mp-550498</a>,<a href="https://materialsproject.org/materials/mp-551740/">mp-551740</a>,5,121,0.1,0.071,0.221,4.738
<a href="candidate.html?wfid=wfid_1476040743.679850">wfid_1476040743.679850</a>,PbN6,<a href="https://materialsproject.org/materials/mp-620058/">mp-620058</a>,<a href="https://materialsproject.org/materials/mp-667338/">mp-667338</a>,33,62,0.4,-0.000,0.229,2.303
<a href="candidate.html?wfid=wfid_1476040295.440338">wfid_1476040295.440338</a>,K4CO4,<a href="https://materialsproject.org/materials/mp-605843/">mp-605843</a>,<a href="https://materialsproject.org/materials/mp-549869/">mp-549869</a>,8,121,9.1,0.002,0.289,2.165
<a href="candidate.html?wfid=wfid_1484445193.941953">wfid_1484445193.941953</a>,Rb2ZnCl4,<a href="https://materialsproject.org/materials/mp-568350/">mp-568350</a>,<a href="https://materialsproject.org/materials/mp-608314/">mp-608314</a>,33,62,0.5,0.006,0.920,4.514
<a href="candidate.html?wfid=wfid_1476040986.216576">wfid_1476040986.216576</a>,La(HO)3,<a href="https://materialsproject.org/materials/mp-625733/">mp-625733</a>,<a href="https://materialsproject.org/materials/mp-625394/">mp-625394</a>,173,176,17.9,-0.002,0.189,4.002
<a href="candidate.html?wfid=wfid_1484444953.778541">wfid_1484444953.778541</a>,BaTiO3,<a href="https://materialsproject.org/materials/mp-5777/">mp-5777</a>,<a href="https://materialsproject.org/materials/mp-2998/">mp-2998</a>,38,221,50.0,0.014,0.241,2.290
<a href="candidate.html?wfid=wfid_1484445014.628732">wfid_1484445014.628732</a>,Ca3Mn2O7,<a href="https://materialsproject.org/materials/mvc-11576/">mvc-11576</a>,<a href="https://materialsproject.org/materials/mp-19610/">mp-19610</a>,36,63,5.6,0.010,0.383,0.294
<a href="candidate.html?wfid=wfid_1476040989.22333">wfid_1476040989.22333</a>,Y(HO)3,<a href="https://materialsproject.org/materials/mp-625677/">mp-625677</a>,<a href="https://materialsproject.org/materials/mp-24076/">mp-24076</a>,173,176,7.8,-0.001,0.087,3.889
<a href="candidate.html?wfid=wfid_1476041098.970098">wfid_1476041098.970098</a>,K3SbS4,<a href="https://materialsproject.org/materials/mp-9781/">mp-9781</a>,<a href="https://materialsproject.org/materials/mp-9911/">mp-9911</a>,36,217,1.0,0.008,0.736,2.158
<a href="candidate.html?wfid=wfid_1476041051.123043">wfid_1476041051.123043</a>,Ag3SI,<a href="https://materialsproject.org/materials/mp-22995/">mp-22995</a>,<a href="https://materialsproject.org/materials/mp-558189/">mp-558189</a>,146,221,11.8,0.050,0.627,0.505