Workflow id,Search id,Formula,Polar id,Nonpolar id,Polar Spacegroup,Nonpolar Spacegroup,Polarization,Energy Difference,Max Distortion,Band Gap
<a href="candidate.html?wfid=wfid_1562199295.62978167">wfid_1562199295.62978167</a>,260,H2MoO4,<a href="https://materialsproject.org/materials/mp-625600/">mp-625600</a>,<a href="https://materialsproject.org/materials/mp-626577/">mp-626577</a>,1,2,0.2,-0.001,0.389,3.204
<a href="candidate.html?wfid=wfid_1562199295.69225680">wfid_1562199295.69225680</a>,32,AlH3O3,<a href="https://materialsproject.org/materials/mp-626435/">mp-626435</a>,<a href="https://materialsproject.org/materials/mp-626414/">mp-626414</a>,1,2,0.1,0.010,0.399,5.011
<a href="candidate.html?wfid=wfid_1562199295.77439317">wfid_1562199295.77439317</a>,262,H2MoO4,<a href="https://materialsproject.org/materials/mp-626586/">mp-626586</a>,<a href="https://materialsproject.org/materials/mp-626577/">mp-626577</a>,1,2,16.3,-0.077,1.236,2.143
<a href="candidate.html?wfid=wfid_1562199295.82524035">wfid_1562199295.82524035</a>,266,H2O10U3,<a href="https://materialsproject.org/materials/mp-626114/">mp-626114</a>,<a href="https://materialsproject.org/materials/mp-626104/">mp-626104</a>,1,2,23.0,0.034,1.320,1.848
<a href="candidate.html?wfid=wfid_1562199295.87807235">wfid_1562199295.87807235</a>,267,H2O10U3,<a href="https://materialsproject.org/materials/mp-626114/">mp-626114</a>,<a href="https://materialsproject.org/materials/mp-626062/">mp-626062</a>,1,2,23.0,-0.034,0.643,1.848
<a href="candidate.html?wfid=wfid_1562199296.04072234">wfid_1562199296.04072234</a>,295,HNaO,<a href="https://materialsproject.org/materials/mp-626000/">mp-626000</a>,<a href="https://materialsproject.org/materials/mp-23940/">mp-23940</a>,4,11,10.7,0.002,0.198,2.988
<a href="candidate.html?wfid=wfid_1562199296.07296394">wfid_1562199296.07296394</a>,261,H2MoO4,<a href="https://materialsproject.org/materials/mp-626582/">mp-626582</a>,<a href="https://materialsproject.org/materials/mp-626577/">mp-626577</a>,1,2,39.2,-0.048,1.060,2.512
<a href="candidate.html?wfid=wfid_1562199296.16002539">wfid_1562199296.16002539</a>,86,BiCuO8W2,<a href="https://materialsproject.org/materials/mp-565192/">mp-565192</a>,<a href="https://materialsproject.org/materials/mp-615173/">mp-615173</a>,1,2,0.8,0.000,0.051,1.326
<a href="candidate.html?wfid=wfid_1562199296.21214937">wfid_1562199296.21214937</a>,108,C3ClH10NO4,<a href="https://materialsproject.org/materials/mp-554570/">mp-554570</a>,<a href="https://materialsproject.org/materials/mp-560498/">mp-560498</a>,4,11,0.3,-0.000,0.275,5.613
<a href="candidate.html?wfid=wfid_1562199296.32626762">wfid_1562199296.32626762</a>,192,Cs2HgI4,<a href="https://materialsproject.org/materials/mp-567594/">mp-567594</a>,<a href="https://materialsproject.org/materials/mp-28421/">mp-28421</a>,4,11,0.3,-0.001,0.075,2.114
<a href="candidate.html?wfid=wfid_1562199296.55106864">wfid_1562199296.55106864</a>,100,Br4K2Zn,<a href="https://materialsproject.org/materials/mp-23535/">mp-23535</a>,<a href="https://materialsproject.org/materials/mp-23495/">mp-23495</a>,4,11,1.9,0.001,0.140,3.674
<a href="candidate.html?wfid=wfid_1562199296.60378780">wfid_1562199296.60378780</a>,59,BaC2CaO6,<a href="https://materialsproject.org/materials/mp-644852/">mp-644852</a>,<a href="https://materialsproject.org/materials/mp-6568/">mp-6568</a>,4,11,0.0,-0.016,0.702,4.758
<a href="candidate.html?wfid=wfid_1562199296.66891517">wfid_1562199296.66891517</a>,204,CuI,<a href="https://materialsproject.org/materials/mp-673245/">mp-673245</a>,<a href="https://materialsproject.org/materials/mp-22895/">mp-22895</a>,7,216,0.0,-0.003,0.115,1.166
<a href="candidate.html?wfid=wfid_1562199296.70345448">wfid_1562199296.70345448</a>,300,HORb,<a href="https://materialsproject.org/materials/mp-626721/">mp-626721</a>,<a href="https://materialsproject.org/materials/mp-643043/">mp-643043</a>,4,11,10.5,0.007,0.402,3.399
<a href="candidate.html?wfid=wfid_1562199296.73456920">wfid_1562199296.73456920</a>,60,BaCO3,<a href="https://materialsproject.org/materials/mp-762225/">mp-762225</a>,<a href="https://materialsproject.org/materials/mp-34195/">mp-34195</a>,4,11,1.0,0.001,1.307,4.458
<a href="candidate.html?wfid=wfid_1562345060.20349732">wfid_1562345060.20349732</a>,312,KLaS4Si,<a href="https://materialsproject.org/materials/mp-861938/">mp-861938</a>,<a href="https://materialsproject.org/materials/mp-12924/">mp-12924</a>,4,11,7.4,0.003,0.282,2.847
<a href="candidate.html?wfid=wfid_1562345060.28720726">wfid_1562345060.28720726</a>,220,F4MgSr,<a href="https://materialsproject.org/materials/mp-561022/">mp-561022</a>,<a href="https://materialsproject.org/materials/mp-556290/">mp-556290</a>,4,11,10.7,0.035,0.922,6.658
<a href="candidate.html?wfid=wfid_1562345060.94342955">wfid_1562345060.94342955</a>,57,Ba2F7Y,<a href="https://materialsproject.org/materials/mp-768350/">mp-768350</a>,<a href="https://materialsproject.org/materials/mp-777744/">mp-777744</a>,4,14,0.7,-0.064,1.263,6.516
<a href="candidate.html?wfid=wfid_1562345061.28565377">wfid_1562345061.28565377</a>,109,C6Cu2H10N4S3,<a href="https://materialsproject.org/materials/mp-600236/">mp-600236</a>,<a href="https://materialsproject.org/materials/mp-555729/">mp-555729</a>,4,14,0.0,-0.007,0.951,2.773
<a href="candidate.html?wfid=wfid_1562345061.85187620">wfid_1562345061.85187620</a>,48,B3CaH5O8,<a href="https://materialsproject.org/materials/mp-560899/">mp-560899</a>,<a href="https://materialsproject.org/materials/mp-705495/">mp-705495</a>,4,14,0.6,0.004,0.957,5.611
<a href="candidate.html?wfid=wfid_1562345062.31879317">wfid_1562345062.31879317</a>,264,H2O,<a href="https://materialsproject.org/materials/mp-557082/">mp-557082</a>,<a href="https://materialsproject.org/materials/mp-558226/">mp-558226</a>,4,19,13.5,-0.001,0.882,5.481
<a href="candidate.html?wfid=wfid_1562345062.67599870">wfid_1562345062.67599870</a>,265,H2O,<a href="https://materialsproject.org/materials/mp-557082/">mp-557082</a>,<a href="https://materialsproject.org/materials/mp-558958/">mp-558958</a>,4,19,13.5,0.000,0.834,5.481
<a href="candidate.html?wfid=wfid_1562345063.09303946">wfid_1562345063.09303946</a>,375,O2Si,<a href="https://materialsproject.org/materials/mp-972808/">mp-972808</a>,<a href="https://materialsproject.org/materials/mp-559091/">mp-559091</a>,4,182,0.4,-0.010,1.296,5.591
<a href="candidate.html?wfid=wfid_1562345063.29510504">wfid_1562345063.29510504</a>,107,C2HgN2S2,<a href="https://materialsproject.org/materials/mp-610992/">mp-610992</a>,<a href="https://materialsproject.org/materials/mp-655275/">mp-655275</a>,5,12,0.9,-0.002,0.060,2.136
<a href="candidate.html?wfid=wfid_1562345063.38077530">wfid_1562345063.38077530</a>,374,O2Si,<a href="https://materialsproject.org/materials/mp-555891/">mp-555891</a>,<a href="https://materialsproject.org/materials/mp-559091/">mp-559091</a>,4,182,0.0,-0.003,0.846,5.389
<a href="candidate.html?wfid=wfid_1562345063.80485743">wfid_1562345063.80485743</a>,72,BaO5Ti2,<a href="https://materialsproject.org/materials/mp-555966/">mp-555966</a>,<a href="https://materialsproject.org/materials/mp-3943/">mp-3943</a>,5,12,15.3,0.003,0.169,2.207
<a href="candidate.html?wfid=wfid_1562345064.01802743">wfid_1562345064.01802743</a>,17,AgC2O2,<a href="https://materialsproject.org/materials/mp-600237/">mp-600237</a>,<a href="https://materialsproject.org/materials/mp-654937/">mp-654937</a>,5,15,0.0,-0.001,0.142,0.992
<a href="candidate.html?wfid=wfid_1562345064.51602404">wfid_1562345064.51602404</a>,252,GaN5O14,<a href="https://materialsproject.org/materials/mp-541950/">mp-541950</a>,<a href="https://materialsproject.org/materials/mp-557954/">mp-557954</a>,5,82,0.0,0.002,0.642,1.266
<a href="candidate.html?wfid=wfid_1562345064.64947472">wfid_1562345064.64947472</a>,118,CLi4O4,<a href="https://materialsproject.org/materials/mp-550320/">mp-550320</a>,<a href="https://materialsproject.org/materials/mp-551848/">mp-551848</a>,5,121,49.0,0.058,0.798,5.050
<a href="candidate.html?wfid=wfid_1562345064.72820430">wfid_1562345064.72820430</a>,113,CK4O4,<a href="https://materialsproject.org/materials/mp-551561/">mp-551561</a>,<a href="https://materialsproject.org/materials/mp-549869/">mp-549869</a>,5,121,16.7,0.006,0.608,1.997
<a href="candidate.html?wfid=wfid_1562345064.95566356">wfid_1562345064.95566356</a>,123,CNa4O4,<a href="https://materialsproject.org/materials/mp-13274/">mp-13274</a>,<a href="https://materialsproject.org/materials/mp-546551/">mp-546551</a>,5,121,39.2,0.026,0.999,2.183
<a href="candidate.html?wfid=wfid_1562345065.02973794">wfid_1562345065.02973794</a>,129,CO4Rb4,<a href="https://materialsproject.org/materials/mp-551176/">mp-551176</a>,<a href="https://materialsproject.org/materials/mp-545760/">mp-545760</a>,5,121,14.6,0.003,0.568,1.406
<a href="candidate.html?wfid=wfid_1562345065.11062718">wfid_1562345065.11062718</a>,280,H3O3Pr,<a href="https://materialsproject.org/materials/mp-625452/">mp-625452</a>,<a href="https://materialsproject.org/materials/mp-626361/">mp-626361</a>,6,11,0.1,0.002,0.140,3.760
<a href="candidate.html?wfid=wfid_1562345065.17991627">wfid_1562345065.17991627</a>,281,H3O3Pr,<a href="https://materialsproject.org/materials/mp-625452/">mp-625452</a>,<a href="https://materialsproject.org/materials/mp-625447/">mp-625447</a>,6,176,0.1,-0.000,0.102,3.760
<a href="candidate.html?wfid=wfid_1562345065.45762179">wfid_1562345065.45762179</a>,286,H4O5S,<a href="https://materialsproject.org/materials/mp-626448/">mp-626448</a>,<a href="https://materialsproject.org/materials/mp-626109/">mp-626109</a>,7,14,1.0,-0.000,0.195,5.650
<a href="candidate.html?wfid=wfid_1562345065.65066324">wfid_1562345065.65066324</a>,289,H5IO6,<a href="https://materialsproject.org/materials/mp-625256/">mp-625256</a>,<a href="https://materialsproject.org/materials/mp-27773/">mp-27773</a>,7,14,0.3,-0.001,0.268,2.326
<a href="candidate.html?wfid=wfid_1562345065.88747031">wfid_1562345065.88747031</a>,283,H3O4P,<a href="https://materialsproject.org/materials/mp-626450/">mp-626450</a>,<a href="https://materialsproject.org/materials/mp-23902/">mp-23902</a>,7,14,4.1,-0.013,0.869,5.666
<a href="candidate.html?wfid=wfid_1562345066.26534577">wfid_1562345066.26534577</a>,284,H3O4P,<a href="https://materialsproject.org/materials/mp-626450/">mp-626450</a>,<a href="https://materialsproject.org/materials/mp-626449/">mp-626449</a>,7,14,4.1,-0.003,0.391,5.666
<a href="candidate.html?wfid=wfid_1562345066.70855532">wfid_1562345066.70855532</a>,43,AuCl4K,<a href="https://materialsproject.org/materials/mp-27181/">mp-27181</a>,<a href="https://materialsproject.org/materials/mp-568986/">mp-568986</a>,7,14,0.3,0.000,0.059,1.392
<a href="candidate.html?wfid=wfid_1562345066.90756711">wfid_1562345066.90756711</a>,33,AlH3O3,<a href="https://materialsproject.org/materials/mp-626587/">mp-626587</a>,<a href="https://materialsproject.org/materials/mp-626605/">mp-626605</a>,7,61,8.1,0.008,0.628,4.950
<a href="candidate.html?wfid=wfid_1562345067.21007940">wfid_1562345067.21007940</a>,82,Bi4O12Ti3,<a href="https://materialsproject.org/materials/mp-723064/">mp-723064</a>,<a href="https://materialsproject.org/materials/mp-23335/">mp-23335</a>,7,139,58.1,0.062,0.567,2.358
<a href="candidate.html?wfid=wfid_1562345067.39360264">wfid_1562345067.39360264</a>,115,CK4O4,<a href="https://materialsproject.org/materials/mp-605843/">mp-605843</a>,<a href="https://materialsproject.org/materials/mp-549869/">mp-549869</a>,8,121,10.2,0.002,0.288,2.188
<a href="candidate.html?wfid=wfid_1562345067.50179482">wfid_1562345067.50179482</a>,378,O2Si,<a href="https://materialsproject.org/materials/mp-557881/">mp-557881</a>,<a href="https://materialsproject.org/materials/mp-558351/">mp-558351</a>,8,12,0.0,-0.000,0.131,5.526
<a href="candidate.html?wfid=wfid_1562345068.11764927">wfid_1562345068.11764927</a>,144,Cd2ClP3,<a href="https://materialsproject.org/materials/mp-29246/">mp-29246</a>,<a href="https://materialsproject.org/materials/mp-644431/">mp-644431</a>,9,15,0.8,0.000,0.056,1.260
<a href="candidate.html?wfid=wfid_1562345068.26681921">wfid_1562345068.26681921</a>,191,CrO9P3,<a href="https://materialsproject.org/materials/mp-566776/">mp-566776</a>,<a href="https://materialsproject.org/materials/mp-566761/">mp-566761</a>,9,15,0.3,0.001,0.276,3.185
<a href="candidate.html?wfid=wfid_1562345068.66194719">wfid_1562345068.66194719</a>,294,HK2NO6S2,<a href="https://materialsproject.org/materials/mp-695383/">mp-695383</a>,<a href="https://materialsproject.org/materials/mp-706912/">mp-706912</a>,9,15,3.2,0.006,0.594,5.279
<a href="candidate.html?wfid=wfid_1562345068.84228879">wfid_1562345068.84228879</a>,273,H2O4S,<a href="https://materialsproject.org/materials/mp-625445/">mp-625445</a>,<a href="https://materialsproject.org/materials/mp-690733/">mp-690733</a>,9,15,51.0,-0.034,1.042,5.800
<a href="candidate.html?wfid=wfid_1562345068.96362730">wfid_1562345068.96362730</a>,89,BiFeO3,<a href="https://materialsproject.org/materials/mp-24942/">mp-24942</a>,<a href="https://materialsproject.org/materials/mp-561388/">mp-561388</a>,160,221,124.5,0.182,0.688,1.781
<a href="candidate.html?wfid=wfid_1562345069.03136189">wfid_1562345069.03136189</a>,94,BiO3Sc,<a href="https://materialsproject.org/materials/mp-555313/">mp-555313</a>,<a href="https://materialsproject.org/materials/mp-555769/">mp-555769</a>,9,15,5.7,0.000,0.087,2.699
<a href="candidate.html?wfid=wfid_1562345069.20163833">wfid_1562345069.20163833</a>,47,B2O6Zn3,<a href="https://materialsproject.org/materials/mp-559949/">mp-559949</a>,<a href="https://materialsproject.org/materials/mp-542833/">mp-542833</a>,9,15,0.1,-0.000,0.031,2.746
<a href="candidate.html?wfid=wfid_1562345070.54182585">wfid_1562345070.54182585</a>,268,H2O2Sr,<a href="https://materialsproject.org/materials/mp-625184/">mp-625184</a>,<a href="https://materialsproject.org/materials/mp-27425/">mp-27425</a>,26,62,1.2,-0.001,0.180,3.996
<a href="candidate.html?wfid=wfid_1562345070.64579894">wfid_1562345070.64579894</a>,304,ILi6PS5,<a href="https://materialsproject.org/materials/mp-950995/">mp-950995</a>,<a href="https://materialsproject.org/materials/mp-985582/">mp-985582</a>,9,216,2.6,0.016,0.769,2.289
<a href="candidate.html?wfid=wfid_1562345070.86402364">wfid_1562345070.86402364</a>,269,H2O2Sr,<a href="https://materialsproject.org/materials/mp-625184/">mp-625184</a>,<a href="https://materialsproject.org/materials/mp-625191/">mp-625191</a>,26,62,1.2,0.002,0.255,3.996
<a href="candidate.html?wfid=wfid_1562345071.44504562">wfid_1562345071.44504562</a>,111,CH4N2S,<a href="https://materialsproject.org/materials/mp-721896/">mp-721896</a>,<a href="https://materialsproject.org/materials/mp-23930/">mp-23930</a>,26,62,4.8,-0.006,0.770,3.342
<a href="candidate.html?wfid=wfid_1562345071.55443872">wfid_1562345071.55443872</a>,409,OPb,<a href="https://materialsproject.org/materials/mp-550714/">mp-550714</a>,<a href="https://materialsproject.org/materials/mp-20878/">mp-20878</a>,29,57,54.3,-0.002,0.528,2.232
<a href="candidate.html?wfid=wfid_1562345071.77195440">wfid_1562345071.77195440</a>,146,CdO3Ti,<a href="https://materialsproject.org/materials/mp-20940/">mp-20940</a>,<a href="https://materialsproject.org/materials/mp-14550/">mp-14550</a>,26,62,37.2,0.003,0.122,2.463
<a href="candidate.html?wfid=wfid_1562345071.87614530">wfid_1562345071.87614530</a>,258,H2Mg,<a href="https://materialsproject.org/materials/mp-569051/">mp-569051</a>,<a href="https://materialsproject.org/materials/mp-23711/">mp-23711</a>,29,60,30.9,-0.040,0.849,2.365
<a href="candidate.html?wfid=wfid_1562345071.93467738">wfid_1562345071.93467738</a>,361,NaNbO3,<a href="https://materialsproject.org/materials/mp-558920/">mp-558920</a>,<a href="https://materialsproject.org/materials/mp-3671/">mp-3671</a>,29,57,31.5,-0.000,0.682,2.404
<a href="candidate.html?wfid=wfid_1562345072.21799631">wfid_1562345072.21799631</a>,388,O2Zr,<a href="https://materialsproject.org/materials/mp-556605/">mp-556605</a>,<a href="https://materialsproject.org/materials/mp-1565/">mp-1565</a>,29,225,51.2,0.047,0.835,3.710
<a href="candidate.html?wfid=wfid_1562345072.89491942">wfid_1562345072.89491942</a>,362,NaNbO3,<a href="https://materialsproject.org/materials/mp-558920/">mp-558920</a>,<a href="https://materialsproject.org/materials/mp-559354/">mp-559354</a>,29,63,31.5,0.022,0.493,2.404
<a href="candidate.html?wfid=wfid_1562345073.07864623">wfid_1562345073.07864623</a>,301,HfO2,<a href="https://materialsproject.org/materials/mp-685097/">mp-685097</a>,<a href="https://materialsproject.org/materials/mp-550893/">mp-550893</a>,29,225,53.4,0.060,0.863,4.377
<a href="candidate.html?wfid=wfid_1562345073.13297542">wfid_1562345073.13297542</a>,293,HInO2,<a href="https://materialsproject.org/materials/mp-504535/">mp-504535</a>,<a href="https://materialsproject.org/materials/mp-632711/">mp-632711</a>,31,58,13.2,0.010,0.245,1.781
<a href="candidate.html?wfid=wfid_1562345073.51183116">wfid_1562345073.51183116</a>,302,HfO3Pb,<a href="https://materialsproject.org/materials/mp-669414/">mp-669414</a>,<a href="https://materialsproject.org/materials/mp-22734/">mp-22734</a>,32,55,19.8,-0.003,0.608,2.795
<a href="candidate.html?wfid=wfid_1562345073.70348192">wfid_1562345073.70348192</a>,112,CHO2Tl,<a href="https://materialsproject.org/materials/mp-558579/">mp-558579</a>,<a href="https://materialsproject.org/materials/mp-557687/">mp-557687</a>,33,52,0.8,-0.000,0.078,3.501
<a href="candidate.html?wfid=wfid_1562345073.88793953">wfid_1562345073.88793953</a>,390,O3PbZr,<a href="https://materialsproject.org/materials/mp-647557/">mp-647557</a>,<a href="https://materialsproject.org/materials/mp-542903/">mp-542903</a>,32,55,23.5,-0.005,0.363,2.844
<a href="candidate.html?wfid=wfid_1562345074.16515924">wfid_1562345074.16515924</a>,365,NbO4Sb,<a href="https://materialsproject.org/materials/mp-3491/">mp-3491</a>,<a href="https://materialsproject.org/materials/mp-3612/">mp-3612</a>,33,52,18.1,0.000,0.211,2.446
<a href="candidate.html?wfid=wfid_1562345074.29488196">wfid_1562345074.29488196</a>,404,O5PTiTl,<a href="https://materialsproject.org/materials/mp-6706/">mp-6706</a>,<a href="https://materialsproject.org/materials/mp-559607/">mp-559607</a>,33,52,22.1,0.004,0.663,2.652
<a href="candidate.html?wfid=wfid_1562345074.60128275">wfid_1562345074.60128275</a>,26,AlCl4Hg2Sb,<a href="https://materialsproject.org/materials/mp-570828/">mp-570828</a>,<a href="https://materialsproject.org/materials/mp-568001/">mp-568001</a>,33,60,0.5,-0.000,0.739,0.891
<a href="candidate.html?wfid=wfid_1562345074.87030107">wfid_1562345074.87030107</a>,162,Cl4GaHg2Sb,<a href="https://materialsproject.org/materials/mp-568031/">mp-568031</a>,<a href="https://materialsproject.org/materials/mp-571190/">mp-571190</a>,33,60,0.5,-0.001,0.803,0.817
<a href="candidate.html?wfid=wfid_1562345075.60077746">wfid_1562345075.60077746</a>,164,Cl4K2Zn,<a href="https://materialsproject.org/materials/mp-618177/">mp-618177</a>,<a href="https://materialsproject.org/materials/mp-653454/">mp-653454</a>,33,62,2.2,-0.000,0.115,4.400
<a href="candidate.html?wfid=wfid_1562345075.73274781">wfid_1562345075.73274781</a>,346,MgO3Si,<a href="https://materialsproject.org/materials/mp-557803/">mp-557803</a>,<a href="https://materialsproject.org/materials/mp-5026/">mp-5026</a>,33,60,1.1,-0.004,1.523,4.662
<a href="candidate.html?wfid=wfid_1562345076.06485889">wfid_1562345076.06485889</a>,342,LiO4PV,<a href="https://materialsproject.org/materials/mp-765022/">mp-765022</a>,<a href="https://materialsproject.org/materials/mp-761338/">mp-761338</a>,33,60,0.1,-0.001,0.074,2.667
<a href="candidate.html?wfid=wfid_1562345076.32521814">wfid_1562345076.32521814</a>,167,Cl4Rb2Zn,<a href="https://materialsproject.org/materials/mp-616185/">mp-616185</a>,<a href="https://materialsproject.org/materials/mp-608314/">mp-608314</a>,33,62,0.3,-0.000,0.114,4.449