Workflow id,Formula,Polar id,Nonpolar id,Polar Spacegroup,Nonpolar Spacegroup,Polarization,Energy Difference,Max Distortion,Band Gap
<a href="candidate.html?wfid=wfid_1476040059.599818">wfid_1476040059.599818</a>,Mo(HO2)2,<a href="https://materialsproject.org/materials/mp-625600/">mp-625600</a>,<a href="https://materialsproject.org/materials/mp-626577/">mp-626577</a>,1,2,0.6,-0.001,0.381,3.426
<a href="candidate.html?wfid=wfid_1476040115.133166">wfid_1476040115.133166</a>,BaCO3,<a href="https://materialsproject.org/materials/mp-762225/">mp-762225</a>,<a href="https://materialsproject.org/materials/mp-34195/">mp-34195</a>,4,11,1.0,-0.001,1.299,4.465
<a href="candidate.html?wfid=wfid_1476040897.624205">wfid_1476040897.624205</a>,Al11AgO17,<a href="https://materialsproject.org/materials/mp-849760/">mp-849760</a>,<a href="https://materialsproject.org/materials/mp-766293/">mp-766293</a>,40,63,2.2,0.000,1.115,3.142
<a href="candidate.html?wfid=wfid_1476041121.199250">wfid_1476041121.199250</a>,CsPbCl3,<a href="https://materialsproject.org/materials/mp-675524/">mp-675524</a>,<a href="https://materialsproject.org/materials/mp-23037/">mp-23037</a>,38,221,2.3,0.006,0.575,2.418
<a href="candidate.html?wfid=wfid_1476041161.431473">wfid_1476041161.431473</a>,LiZr2(PO4)3,<a href="https://materialsproject.org/materials/mp-681439/">mp-681439</a>,<a href="https://materialsproject.org/materials/mp-541661/">mp-541661</a>,5,167,8.1,0.003,1.225,4.394
<a href="candidate.html?wfid=wfid_1476041110.265759">wfid_1476041110.265759</a>,SrTa2Bi2O9,<a href="https://materialsproject.org/materials/mp-559951/">mp-559951</a>,<a href="https://materialsproject.org/materials/mp-554675/">mp-554675</a>,41,139,38.2,0.019,0.515,2.312
<a href="candidate.html?wfid=wfid_1476040314.446703">wfid_1476040314.446703</a>,Cd2P3Cl,<a href="https://materialsproject.org/materials/mp-29246/">mp-29246</a>,<a href="https://materialsproject.org/materials/mp-644431/">mp-644431</a>,9,15,0.8,0.000,0.052,1.125
<a href="candidate.html?wfid=wfid_1476040435.561861">wfid_1476040435.561861</a>,NbSbO4,<a href="https://materialsproject.org/materials/mp-3491/">mp-3491</a>,<a href="https://materialsproject.org/materials/mp-3612/">mp-3612</a>,33,52,18.1,0.000,0.211,2.461
<a href="candidate.html?wfid=wfid_1476040355.151056">wfid_1476040355.151056</a>,ScBiO3,<a href="https://materialsproject.org/materials/mp-555313/">mp-555313</a>,<a href="https://materialsproject.org/materials/mp-555769/">mp-555769</a>,9,15,6.6,0.000,0.089,2.675
<a href="candidate.html?wfid=wfid_1476040485.585687">wfid_1476040485.585687</a>,H3ClO5,<a href="https://materialsproject.org/materials/mp-625175/">mp-625175</a>,<a href="https://materialsproject.org/materials/mp-625148/">mp-625148</a>,33,62,5.2,0.047,1.187,5.381
<a href="candidate.html?wfid=wfid_1476041141.321099">wfid_1476041141.321099</a>,NaHO,<a href="https://materialsproject.org/materials/mp-626000/">mp-626000</a>,<a href="https://materialsproject.org/materials/mp-23891/">mp-23891</a>,4,63,10.7,0.001,0.196,2.982
<a href="candidate.html?wfid=wfid_1476041106.860617">wfid_1476041106.860617</a>,Na4CO4,<a href="https://materialsproject.org/materials/mp-552623/">mp-552623</a>,<a href="https://materialsproject.org/materials/mp-551886/">mp-551886</a>,146,215,3.6,-0.001,0.151,1.903
<a href="candidate.html?wfid=wfid_1476040156.35457">wfid_1476040156.35457</a>,H2O,<a href="https://materialsproject.org/materials/mp-557082/">mp-557082</a>,<a href="https://materialsproject.org/materials/mp-558958/">mp-558958</a>,4,19,13.5,0.000,0.833,5.478
<a href="candidate.html?wfid=wfid_1476040410.139034">wfid_1476040410.139034</a>,HfO2,<a href="https://materialsproject.org/materials/mp-685097/">mp-685097</a>,<a href="https://materialsproject.org/materials/mp-550893/">mp-550893</a>,29,225,52.4,0.061,0.859,4.366
<a href="candidate.html?wfid=wfid_1484445250.57163">wfid_1484445250.57163</a>,Li4CO4,<a href="https://materialsproject.org/materials/mp-550320/">mp-550320</a>,<a href="https://materialsproject.org/materials/mp-551740/">mp-551740</a>,5,121,49.0,0.016,1.157,5.050
<a href="candidate.html?wfid=wfid_1476040159.879894">wfid_1476040159.879894</a>,H2O,<a href="https://materialsproject.org/materials/mp-557082/">mp-557082</a>,<a href="https://materialsproject.org/materials/mp-558226/">mp-558226</a>,4,19,13.5,-0.001,0.882,5.478
<a href="candidate.html?wfid=wfid_1476040428.848867">wfid_1476040428.848867</a>,ZrPbO3,<a href="https://materialsproject.org/materials/mp-647557/">mp-647557</a>,<a href="https://materialsproject.org/materials/mp-542903/">mp-542903</a>,32,55,23.5,-0.004,0.356,2.868
<a href="candidate.html?wfid=wfid_1484445051.753689">wfid_1484445051.753689</a>,YBiO3,<a href="https://materialsproject.org/materials/mvc-3479/">mvc-3479</a>,<a href="https://materialsproject.org/materials/mvc-15941/">mvc-15941</a>,185,194,9.9,0.037,0.650,2.057
<a href="candidate.html?wfid=wfid_1476040279.158189">wfid_1476040279.158189</a>,Ti3(BiO3)4,<a href="https://materialsproject.org/materials/mp-723064/">mp-723064</a>,<a href="https://materialsproject.org/materials/mp-23335/">mp-23335</a>,7,139,58.2,0.062,0.566,2.368
<a href="candidate.html?wfid=wfid_1484445180.530019">wfid_1484445180.530019</a>,Na4CO4,<a href="https://materialsproject.org/materials/mp-645295/">mp-645295</a>,<a href="https://materialsproject.org/materials/mp-551886/">mp-551886</a>,8,215,12.5,-0.000,0.670,1.719
<a href="candidate.html?wfid=wfid_1484694927.058575">wfid_1484694927.058575</a>,RbPbF3,<a href="https://materialsproject.org/materials/mp-674508/">mp-674508</a>,<a href="https://materialsproject.org/materials/mp-21043/">mp-21043</a>,9,221,4.0,0.033,0.776,3.804
<a href="candidate.html?wfid=wfid_1476041035.850896">wfid_1476041035.850896</a>,BaNiO3,<a href="https://materialsproject.org/materials/mp-19241/">mp-19241</a>,<a href="https://materialsproject.org/materials/mp-19138/">mp-19138</a>,186,194,3.7,0.000,0.046,1.480
<a href="candidate.html?wfid=wfid_1476040098.062674">wfid_1476040098.062674</a>,Cs2HgI4,<a href="https://materialsproject.org/materials/mp-567594/">mp-567594</a>,<a href="https://materialsproject.org/materials/mp-28421/">mp-28421</a>,4,11,0.3,-0.001,0.068,2.050
<a href="candidate.html?wfid=wfid_1476040475.325951">wfid_1476040475.325951</a>,Rb2CoCl4,<a href="https://materialsproject.org/materials/mp-571242/">mp-571242</a>,<a href="https://materialsproject.org/materials/mp-23076/">mp-23076</a>,33,62,0.0,-0.001,0.251,0.831
<a href="candidate.html?wfid=wfid_1476040226.929827">wfid_1476040226.929827</a>,Rb4CO4,<a href="https://materialsproject.org/materials/mp-551176/">mp-551176</a>,<a href="https://materialsproject.org/materials/mp-545760/">mp-545760</a>,5,121,14.4,0.003,0.571,1.397
<a href="candidate.html?wfid=wfid_1476040193.378775">wfid_1476040193.378775</a>,HgC2(SN)2,<a href="https://materialsproject.org/materials/mp-610992/">mp-610992</a>,<a href="https://materialsproject.org/materials/mp-655275/">mp-655275</a>,5,12,0.9,-0.002,0.059,2.126
<a href="candidate.html?wfid=wfid_1484445276.419623">wfid_1484445276.419623</a>,Ag2S,<a href="https://materialsproject.org/materials/mp-560025/">mp-560025</a>,<a href="https://materialsproject.org/materials/mp-556225/">mp-556225</a>,4,11,27.5,-0.077,0.723,0.409
<a href="candidate.html?wfid=wfid_1476041088.40149">wfid_1476041088.40149</a>,Rb4CO4,<a href="https://materialsproject.org/materials/mp-550314/">mp-550314</a>,<a href="https://materialsproject.org/materials/mp-546320/">mp-546320</a>,146,215,0.6,-0.001,0.117,1.714
<a href="candidate.html?wfid=wfid_1476040396.862183">wfid_1476040396.862183</a>,MgH2,<a href="https://materialsproject.org/materials/mp-569051/">mp-569051</a>,<a href="https://materialsproject.org/materials/mp-23711/">mp-23711</a>,29,60,30.9,-0.040,0.849,2.365
<a href="candidate.html?wfid=wfid_1484445029.449720">wfid_1484445029.449720</a>,K2SeO4,<a href="https://materialsproject.org/materials/mp-557025/">mp-557025</a>,<a href="https://materialsproject.org/materials/mp-5226/">mp-5226</a>,33,62,0.7,0.000,0.404,3.630
<a href="candidate.html?wfid=wfid_1476040374.879552">wfid_1476040374.879552</a>,H4CSN2,<a href="https://materialsproject.org/materials/mp-721896/">mp-721896</a>,<a href="https://materialsproject.org/materials/mp-23930/">mp-23930</a>,26,62,4.8,-0.006,0.770,3.293
<a href="candidate.html?wfid=wfid_1476040358.683542">wfid_1476040358.683542</a>,Li6PS5I,<a href="https://materialsproject.org/materials/mp-950995/">mp-950995</a>,<a href="https://materialsproject.org/materials/mp-985582/">mp-985582</a>,9,216,1.4,0.016,0.770,2.290
<a href="candidate.html?wfid=wfid_1476041001.553476">wfid_1476041001.553476</a>,NdF3,<a href="https://materialsproject.org/materials/mp-18511/">mp-18511</a>,<a href="https://materialsproject.org/materials/mp-18074/">mp-18074</a>,185,193,17.7,0.172,1.143,7.669
<a href="candidate.html?wfid=wfid_1484445145.139977">wfid_1484445145.139977</a>,ScBiO3,<a href="https://materialsproject.org/materials/mp-555313/">mp-555313</a>,<a href="https://materialsproject.org/materials/mp-550008/">mp-550008</a>,9,221,6.5,0.323,0.726,2.675
<a href="candidate.html?wfid=wfid_1476040753.50691">wfid_1476040753.50691</a>,PbCN2,<a href="https://materialsproject.org/materials/mp-619032/">mp-619032</a>,<a href="https://materialsproject.org/materials/mp-19727/">mp-19727</a>,33,62,10.4,-0.003,0.189,1.728
<a href="candidate.html?wfid=wfid_1476040245.01667">wfid_1476040245.01667</a>,H4SO5,<a href="https://materialsproject.org/materials/mp-626448/">mp-626448</a>,<a href="https://materialsproject.org/materials/mp-626109/">mp-626109</a>,7,14,0.8,-0.000,0.195,5.643
<a href="candidate.html?wfid=wfid_1476040464.155093">wfid_1476040464.155093</a>,LiVPO4,<a href="https://materialsproject.org/materials/mp-765022/">mp-765022</a>,<a href="https://materialsproject.org/materials/mp-761338/">mp-761338</a>,33,60,0.0,0.000,0.083,2.670
<a href="candidate.html?wfid=wfid_1476040282.74358">wfid_1476040282.74358</a>,CuI,<a href="https://materialsproject.org/materials/mp-673245/">mp-673245</a>,<a href="https://materialsproject.org/materials/mp-22895/">mp-22895</a>,7,216,0.6,-0.002,0.121,1.099
<a href="candidate.html?wfid=wfid_1484445287.593799">wfid_1484445287.593799</a>,BeH8(NF2)2,<a href="https://materialsproject.org/materials/mp-24614/">mp-24614</a>,<a href="https://materialsproject.org/materials/mp-720982/">mp-720982</a>,33,62,0.6,0.011,0.549,6.640
<a href="candidate.html?wfid=wfid_1484445253.438371">wfid_1484445253.438371</a>,H(CO)2,<a href="https://materialsproject.org/materials/mp-675395/">mp-675395</a>,<a href="https://materialsproject.org/materials/mp-23680/">mp-23680</a>,6,11,3.4,-0.003,0.313,2.829
<a href="candidate.html?wfid=wfid_1484445209.371670">wfid_1484445209.371670</a>,NaV6O11,<a href="https://materialsproject.org/materials/mp-567072/">mp-567072</a>,<a href="https://materialsproject.org/materials/mp-510616/">mp-510616</a>,36,194,2.4,0.010,0.271,0.987
<a href="candidate.html?wfid=wfid_1476040894.532948">wfid_1476040894.532948</a>,TlF,<a href="https://materialsproject.org/materials/mp-558134/">mp-558134</a>,<a href="https://materialsproject.org/materials/mp-2175/">mp-2175</a>,39,225,6.4,0.029,0.498,3.149
<a href="candidate.html?wfid=wfid_1476040496.278929">wfid_1476040496.278929</a>,KEr2F7,<a href="https://materialsproject.org/materials/mp-27925/">mp-27925</a>,<a href="https://materialsproject.org/materials/mp-558238/">mp-558238</a>,33,62,1.5,0.000,0.183,6.924
<a href="candidate.html?wfid=wfid_1476040851.179557">wfid_1476040851.179557</a>,Ca3Mn2O7,<a href="https://materialsproject.org/materials/mp-19042/">mp-19042</a>,<a href="https://materialsproject.org/materials/mp-19610/">mp-19610</a>,36,63,5.9,0.010,0.388,0.300
<a href="candidate.html?wfid=wfid_1476040875.673476">wfid_1476040875.673476</a>,SiO2,<a href="https://materialsproject.org/materials/mp-557264/">mp-557264</a>,<a href="https://materialsproject.org/materials/mp-559313/">mp-559313</a>,36,64,0.1,0.004,0.736,5.434
<a href="candidate.html?wfid=wfid_1476040489.133921">wfid_1476040489.133921</a>,H4NClO4,<a href="https://materialsproject.org/materials/mp-698084/">mp-698084</a>,<a href="https://materialsproject.org/materials/mp-706586/">mp-706586</a>,33,62,2.2,-0.001,0.903,5.255
<a href="candidate.html?wfid=wfid_1484445186.170228">wfid_1484445186.170228</a>,Mg3B7ClO13,<a href="https://materialsproject.org/materials/mp-23087/">mp-23087</a>,<a href="https://materialsproject.org/materials/mp-23617/">mp-23617</a>,29,219,0.3,0.010,0.491,5.695
<a href="candidate.html?wfid=wfid_1484694929.994404">wfid_1484694929.994404</a>,MoO3,<a href="https://materialsproject.org/materials/mp-715584/">mp-715584</a>,<a href="https://materialsproject.org/materials/mvc-12752/">mvc-12752</a>,7,62,5.2,0.072,0.658,2.155
<a href="candidate.html?wfid=wfid_1476040452.983312">wfid_1476040452.983312</a>,AlHg2SbCl4,<a href="https://materialsproject.org/materials/mp-570828/">mp-570828</a>,<a href="https://materialsproject.org/materials/mp-568001/">mp-568001</a>,33,60,0.5,-0.000,0.738,0.835
<a href="candidate.html?wfid=wfid_1476040109.318651">wfid_1476040109.318651</a>,BaCa(CO3)2,<a href="https://materialsproject.org/materials/mp-644852/">mp-644852</a>,<a href="https://materialsproject.org/materials/mp-6568/">mp-6568</a>,4,11,1.3,-0.018,0.745,4.676
<a href="candidate.html?wfid=wfid_1476040331.097043">wfid_1476040331.097043</a>,Zn3(BO3)2,<a href="https://materialsproject.org/materials/mp-559949/">mp-559949</a>,<a href="https://materialsproject.org/materials/mp-542833/">mp-542833</a>,9,15,0.1,-0.000,0.031,2.709
<a href="candidate.html?wfid=wfid_1476040139.05518">wfid_1476040139.05518</a>,Ba2YF7,<a href="https://materialsproject.org/materials/mp-768350/">mp-768350</a>,<a href="https://materialsproject.org/materials/mp-777744/">mp-777744</a>,4,14,0.7,-0.062,1.262,6.501
<a href="candidate.html?wfid=wfid_1476040902.993927">wfid_1476040902.993927</a>,PbF2,<a href="https://materialsproject.org/materials/mp-685150/">mp-685150</a>,<a href="https://materialsproject.org/materials/mp-315/">mp-315</a>,41,225,5.4,-0.003,0.098,4.396
<a href="candidate.html?wfid=wfid_1476040291.620895">wfid_1476040291.620895</a>,SiO2,<a href="https://materialsproject.org/materials/mp-557881/">mp-557881</a>,<a href="https://materialsproject.org/materials/mp-558351/">mp-558351</a>,8,12,0.0,-0.000,0.131,5.527
<a href="candidate.html?wfid=wfid_1484694826.997820">wfid_1484694826.997820</a>,Ti3(BiO3)4,<a href="https://materialsproject.org/materials/mp-23427/">mp-23427</a>,<a href="https://materialsproject.org/materials/mp-23335/">mp-23335</a>,41,139,17.1,0.062,0.562,2.447
<a href="candidate.html?wfid=wfid_1484445205.351382">wfid_1484445205.351382</a>,Cr3B7ClO13,<a href="https://materialsproject.org/materials/mp-579770/">mp-579770</a>,<a href="https://materialsproject.org/materials/mp-566691/">mp-566691</a>,29,219,1.6,-0.000,0.093,2.688
<a href="candidate.html?wfid=wfid_1484444978.482971">wfid_1484444978.482971</a>,BaAl2O4,<a href="https://materialsproject.org/materials/mp-4202/">mp-4202</a>,<a href="https://materialsproject.org/materials/mp-619456/">mp-619456</a>,173,182,0.3,0.004,0.559,4.079
<a href="candidate.html?wfid=wfid_1476041165.857604">wfid_1476041165.857604</a>,Rb6Si10O23,<a href="https://materialsproject.org/materials/mp-27376/">mp-27376</a>,<a href="https://materialsproject.org/materials/mp-561189/">mp-561189</a>,38,189,0.1,0.013,0.724,4.303
<a href="candidate.html?wfid=wfid_1476040478.537387">wfid_1476040478.537387</a>,Rb2ZnCl4,<a href="https://materialsproject.org/materials/mp-616185/">mp-616185</a>,<a href="https://materialsproject.org/materials/mp-608314/">mp-608314</a>,33,62,0.3,-0.000,0.129,4.450
<a href="candidate.html?wfid=wfid_1476040413.044763">wfid_1476040413.044763</a>,ZrO2,<a href="https://materialsproject.org/materials/mp-556605/">mp-556605</a>,<a href="https://materialsproject.org/materials/mp-1565/">mp-1565</a>,29,225,51.0,0.046,0.828,3.815
<a href="candidate.html?wfid=wfid_1476040963.135149">wfid_1476040963.135149</a>,K2Zn6O7,<a href="https://materialsproject.org/materials/mp-559112/">mp-559112</a>,<a href="https://materialsproject.org/materials/mp-540728/">mp-540728</a>,102,136,2.6,-0.001,0.218,0.808
<a href="candidate.html?wfid=wfid_1476041157.542583">wfid_1476041157.542583</a>,Rb6Si10O23,<a href="https://materialsproject.org/materials/mp-555837/">mp-555837</a>,<a href="https://materialsproject.org/materials/mp-561189/">mp-561189</a>,38,189,0.5,0.008,0.653,4.221
<a href="candidate.html?wfid=wfid_1476040844.52392">wfid_1476040844.52392</a>,Cs2PbO3,<a href="https://materialsproject.org/materials/mp-21521/">mp-21521</a>,<a href="https://materialsproject.org/materials/mp-21283/">mp-21283</a>,36,63,7.2,0.000,0.288,1.391
<a href="candidate.html?wfid=wfid_1484445317.338075">wfid_1484445317.338075</a>,CsGeBr3,<a href="https://materialsproject.org/materials/mp-642739/">mp-642739</a>,<a href="https://materialsproject.org/materials/mp-570223/">mp-570223</a>,8,221,18.4,0.015,0.332,1.461
<a href="candidate.html?wfid=wfid_1476040390.68687">wfid_1476040390.68687</a>,PbO,<a href="https://materialsproject.org/materials/mp-550714/">mp-550714</a>,<a href="https://materialsproject.org/materials/mp-20878/">mp-20878</a>,29,57,53.7,-0.002,0.531,2.257
<a href="candidate.html?wfid=wfid_1476040275.56900">wfid_1476040275.56900</a>,Al(HO)3,<a href="https://materialsproject.org/materials/mp-626587/">mp-626587</a>,<a href="https://materialsproject.org/materials/mp-626605/">mp-626605</a>,7,61,8.0,0.007,0.667,4.918
<a href="candidate.html?wfid=wfid_1484694880.421050">wfid_1484694880.421050</a>,Na4CO4,<a href="https://materialsproject.org/materials/mp-13274/">mp-13274</a>,<a href="https://materialsproject.org/materials/mp-546707/">mp-546707</a>,5,121,39.2,0.010,1.277,2.184
<a href="candidate.html?wfid=wfid_1476040737.27481">wfid_1476040737.27481</a>,CrO3,<a href="https://materialsproject.org/materials/mp-779941/">mp-779941</a>,<a href="https://materialsproject.org/materials/mp-779986/">mp-779986</a>,33,62,0.4,0.021,1.413,1.588
<a href="candidate.html?wfid=wfid_1484445174.483678">wfid_1484445174.483678</a>,SiO2,<a href="https://materialsproject.org/materials/mp-555891/">mp-555891</a>,<a href="https://materialsproject.org/materials/mp-7648/">mp-7648</a>,4,20,0.0,-0.000,0.342,5.388
<a href="candidate.html?wfid=wfid_1476040104.360695">wfid_1476040104.360695</a>,K2ZnBr4,<a href="https://materialsproject.org/materials/mp-23535/">mp-23535</a>,<a href="https://materialsproject.org/materials/mp-23495/">mp-23495</a>,4,11,2.0,0.001,0.140,3.656
<a href="candidate.html?wfid=wfid_1476040403.435688">wfid_1476040403.435688</a>,NaNbO3,<a href="https://materialsproject.org/materials/mp-558920/">mp-558920</a>,<a href="https://materialsproject.org/materials/mp-559354/">mp-559354</a>,29,63,31.9,0.021,0.493,2.402
<a href="candidate.html?wfid=wfid_1476040460.586026">wfid_1476040460.586026</a>,MgSiO3,<a href="https://materialsproject.org/materials/mp-557803/">mp-557803</a>,<a href="https://materialsproject.org/materials/mp-5026/">mp-5026</a>,33,60,1.1,-0.005,1.522,4.663
<a href="candidate.html?wfid=wfid_1476040438.759718">wfid_1476040438.759718</a>,TlHCO2,<a href="https://materialsproject.org/materials/mp-558579/">mp-558579</a>,<a href="https://materialsproject.org/materials/mp-557687/">mp-557687</a>,33,52,0.7,0.000,0.088,3.516
<a href="candidate.html?wfid=wfid_1476041014.627130">wfid_1476041014.627130</a>,K6BiH3(Cl2F)4,<a href="https://materialsproject.org/materials/mp-696998/">mp-696998</a>,<a href="https://materialsproject.org/materials/mp-723540/">mp-723540</a>,186,194,0.1,-0.001,0.160,4.194
<a href="candidate.html?wfid=wfid_1484445106.855737">wfid_1484445106.855737</a>,KP(HO2)2,<a href="https://materialsproject.org/materials/mp-757909/">mp-757909</a>,<a href="https://materialsproject.org/materials/mp-24262/">mp-24262</a>,9,14,0.5,0.003,0.360,5.248