Workflow id,Search id,Formula,Polar id,Nonpolar id,Polar Spacegroup,Nonpolar Spacegroup,Polarization,Energy Difference,Max Distortion,Band Gap
<a href="candidate.html?wfid=wfid_1562345076.84195890">wfid_1562345076.84195890</a>,172,ClH3O5,<a href="https://materialsproject.org/materials/mp-625175/">mp-625175</a>,<a href="https://materialsproject.org/materials/mp-625148/">mp-625148</a>,33,62,5.2,0.047,1.187,5.384
<a href="candidate.html?wfid=wfid_1562345077.01048358">wfid_1562345077.01048358</a>,173,ClH4NO4,<a href="https://materialsproject.org/materials/mp-698084/">mp-698084</a>,<a href="https://materialsproject.org/materials/mp-706586/">mp-706586</a>,33,62,2.2,-0.001,0.902,5.267
<a href="candidate.html?wfid=wfid_1562345077.14704718">wfid_1562345077.14704718</a>,292,H8N2O4S,<a href="https://materialsproject.org/materials/mp-24468/">mp-24468</a>,<a href="https://materialsproject.org/materials/mp-23876/">mp-23876</a>,33,62,0.0,0.007,1.267,5.073
<a href="candidate.html?wfid=wfid_1562345077.57898854">wfid_1562345077.57898854</a>,188,CrO3,<a href="https://materialsproject.org/materials/mp-779941/">mp-779941</a>,<a href="https://materialsproject.org/materials/mp-779986/">mp-779986</a>,33,62,0.4,0.021,1.412,1.575
<a href="candidate.html?wfid=wfid_1562345077.72055408">wfid_1562345077.72055408</a>,210,Er2F7K,<a href="https://materialsproject.org/materials/mp-27925/">mp-27925</a>,<a href="https://materialsproject.org/materials/mp-558238/">mp-558238</a>,33,62,1.5,-0.000,0.184,6.943
<a href="candidate.html?wfid=wfid_1562345077.98674939">wfid_1562345077.98674939</a>,122,CN2Pb,<a href="https://materialsproject.org/materials/mp-619032/">mp-619032</a>,<a href="https://materialsproject.org/materials/mp-19727/">mp-19727</a>,33,62,10.5,-0.003,0.195,1.853
<a href="candidate.html?wfid=wfid_1562345078.17038961">wfid_1562345078.17038961</a>,147,CdO3Ti,<a href="https://materialsproject.org/materials/mp-5052/">mp-5052</a>,<a href="https://materialsproject.org/materials/mp-14550/">mp-14550</a>,33,62,34.8,0.004,0.148,2.415
<a href="candidate.html?wfid=wfid_1562345078.25607094">wfid_1562345078.25607094</a>,91,BiInO3,<a href="https://materialsproject.org/materials/mp-556892/">mp-556892</a>,<a href="https://materialsproject.org/materials/mp-561102/">mp-561102</a>,33,62,64.7,0.011,1.405,2.774
<a href="candidate.html?wfid=wfid_1562345078.33658421">wfid_1562345078.33658421</a>,366,NbO5P,<a href="https://materialsproject.org/materials/mp-556918/">mp-556918</a>,<a href="https://materialsproject.org/materials/mp-5803/">mp-5803</a>,33,62,4.0,-0.001,0.159,2.258
<a href="candidate.html?wfid=wfid_1562345078.54041242">wfid_1562345078.54041242</a>,196,CsO4PZn,<a href="https://materialsproject.org/materials/mp-559752/">mp-559752</a>,<a href="https://materialsproject.org/materials/mp-18673/">mp-18673</a>,33,62,1.0,0.012,0.678,3.966
<a href="candidate.html?wfid=wfid_1562345078.78578590">wfid_1562345078.78578590</a>,358,N6Pb,<a href="https://materialsproject.org/materials/mp-620058/">mp-620058</a>,<a href="https://materialsproject.org/materials/mp-667338/">mp-667338</a>,33,62,0.4,-0.000,0.228,2.292
<a href="candidate.html?wfid=wfid_1562345079.80563577">wfid_1562345079.80563577</a>,20,Al2CaH4O10Si2,<a href="https://materialsproject.org/materials/mp-24603/">mp-24603</a>,<a href="https://materialsproject.org/materials/mp-733653/">mp-733653</a>,33,63,4.2,0.005,0.753,5.051
<a href="candidate.html?wfid=wfid_1562345080.19562594">wfid_1562345080.19562594</a>,174,ClIn,<a href="https://materialsproject.org/materials/mp-571636/">mp-571636</a>,<a href="https://materialsproject.org/materials/mp-571555/">mp-571555</a>,36,63,3.8,-0.000,0.039,1.419
<a href="candidate.html?wfid=wfid_1562345080.72611869">wfid_1562345080.72611869</a>,4,Ag2O4W,<a href="https://materialsproject.org/materials/mp-637188/">mp-637188</a>,<a href="https://materialsproject.org/materials/mp-504466/">mp-504466</a>,34,58,1.0,-0.003,0.391,1.799
<a href="candidate.html?wfid=wfid_1562345080.93250415">wfid_1562345080.93250415</a>,9,Ag2S,<a href="https://materialsproject.org/materials/mp-32669/">mp-32669</a>,<a href="https://materialsproject.org/materials/mp-36216/">mp-36216</a>,36,63,0.4,0.003,0.142,1.376
<a href="candidate.html?wfid=wfid_1562345080.99369532">wfid_1562345080.99369532</a>,407,O7Sr2Ta2,<a href="https://materialsproject.org/materials/mp-13664/">mp-13664</a>,<a href="https://materialsproject.org/materials/mp-12286/">mp-12286</a>,36,63,3.0,-0.000,0.088,2.928
<a href="candidate.html?wfid=wfid_1562345081.30847872">wfid_1562345081.30847872</a>,194,Cs2O3Pb,<a href="https://materialsproject.org/materials/mp-21521/">mp-21521</a>,<a href="https://materialsproject.org/materials/mp-21283/">mp-21283</a>,36,63,7.2,0.000,0.287,1.404
<a href="candidate.html?wfid=wfid_1562345081.78625138">wfid_1562345081.78625138</a>,277,H2O4U,<a href="https://materialsproject.org/materials/mp-626885/">mp-626885</a>,<a href="https://materialsproject.org/materials/mp-626876/">mp-626876</a>,36,64,2.9,0.095,1.415,1.850
<a href="candidate.html?wfid=wfid_1562345081.92745142">wfid_1562345081.92745142</a>,1,Ag10Br3Te4,<a href="https://materialsproject.org/materials/mp-568386/">mp-568386</a>,<a href="https://materialsproject.org/materials/mp-568392/">mp-568392</a>,36,63,3.9,-0.002,0.717,0.868
<a href="candidate.html?wfid=wfid_1562345082.41349074">wfid_1562345082.41349074</a>,383,O2Si,<a href="https://materialsproject.org/materials/mp-16964/">mp-16964</a>,<a href="https://materialsproject.org/materials/mp-560826/">mp-560826</a>,36,63,0.2,0.004,0.688,5.667
<a href="candidate.html?wfid=wfid_1562345082.84911275">wfid_1562345082.84911275</a>,278,H2O4U,<a href="https://materialsproject.org/materials/mp-626885/">mp-626885</a>,<a href="https://materialsproject.org/materials/mp-626864/">mp-626864</a>,36,64,2.9,-0.004,0.174,1.850
<a href="candidate.html?wfid=wfid_1562345083.13307328">wfid_1562345083.13307328</a>,385,O2Si,<a href="https://materialsproject.org/materials/mp-557264/">mp-557264</a>,<a href="https://materialsproject.org/materials/mp-559313/">mp-559313</a>,36,64,0.2,0.004,0.737,5.428
<a href="candidate.html?wfid=wfid_1562345083.35483635">wfid_1562345083.35483635</a>,384,O2Si,<a href="https://materialsproject.org/materials/mp-556218/">mp-556218</a>,<a href="https://materialsproject.org/materials/mp-560826/">mp-560826</a>,36,63,0.0,0.004,0.570,5.602
<a href="candidate.html?wfid=wfid_1562345083.57628883">wfid_1562345083.57628883</a>,229,FTl,<a href="https://materialsproject.org/materials/mp-558134/">mp-558134</a>,<a href="https://materialsproject.org/materials/mp-2175/">mp-2175</a>,39,225,6.4,0.030,0.504,3.107
<a href="candidate.html?wfid=wfid_1562345083.62247248">wfid_1562345083.62247248</a>,213,F2Pb,<a href="https://materialsproject.org/materials/mp-685150/">mp-685150</a>,<a href="https://materialsproject.org/materials/mp-315/">mp-315</a>,41,225,5.0,-0.002,0.092,4.373
<a href="candidate.html?wfid=wfid_1562345083.68955336">wfid_1562345083.68955336</a>,15,AgAl11O17,<a href="https://materialsproject.org/materials/mp-849760/">mp-849760</a>,<a href="https://materialsproject.org/materials/mp-766293/">mp-766293</a>,40,63,2.4,0.000,1.118,3.146
<a href="candidate.html?wfid=wfid_1562345084.34740380">wfid_1562345084.34740380</a>,45,B13C2Li,<a href="https://materialsproject.org/materials/mp-638070/">mp-638070</a>,<a href="https://materialsproject.org/materials/mp-655591/">mp-655591</a>,44,74,0.8,-0.000,0.039,2.555
<a href="candidate.html?wfid=wfid_1562345084.74762742">wfid_1562345084.74762742</a>,212,F2HRb,<a href="https://materialsproject.org/materials/mp-677103/">mp-677103</a>,<a href="https://materialsproject.org/materials/mp-29764/">mp-29764</a>,46,140,1.6,-0.001,0.082,6.657
<a href="candidate.html?wfid=wfid_1562345084.84452891">wfid_1562345084.84452891</a>,30,AlF7MgNa2,<a href="https://materialsproject.org/materials/mp-19931/">mp-19931</a>,<a href="https://materialsproject.org/materials/mp-6319/">mp-6319</a>,46,74,1.1,-0.000,0.208,6.663
<a href="candidate.html?wfid=wfid_1562345085.18772603">wfid_1562345085.18772603</a>,70,BaO3Ti,<a href="https://materialsproject.org/materials/mp-5986/">mp-5986</a>,<a href="https://materialsproject.org/materials/mp-2998/">mp-2998</a>,99,221,45.9,0.011,0.222,1.847
<a href="candidate.html?wfid=wfid_1562345085.34572722">wfid_1562345085.34572722</a>,69,BaO3Ti,<a href="https://materialsproject.org/materials/mp-12992/">mp-12992</a>,<a href="https://materialsproject.org/materials/mp-2998/">mp-2998</a>,99,221,46.7,0.011,0.129,1.849
<a href="candidate.html?wfid=wfid_1562345085.39184383">wfid_1562345085.39184383</a>,314,KNbO3,<a href="https://materialsproject.org/materials/mp-4342/">mp-4342</a>,<a href="https://materialsproject.org/materials/mp-935811/">mp-935811</a>,99,221,48.7,0.011,0.226,1.563
<a href="candidate.html?wfid=wfid_1562345085.42724040">wfid_1562345085.42724040</a>,303,HfO3Sr,<a href="https://materialsproject.org/materials/mp-13108/">mp-13108</a>,<a href="https://materialsproject.org/materials/mp-4551/">mp-4551</a>,99,221,15.1,0.000,0.114,3.793
<a href="candidate.html?wfid=wfid_1562345085.47191419">wfid_1562345085.47191419</a>,389,O3PbTi,<a href="https://materialsproject.org/materials/mp-20459/">mp-20459</a>,<a href="https://materialsproject.org/materials/mp-19845/">mp-19845</a>,99,221,116.8,0.040,0.576,1.958
<a href="candidate.html?wfid=wfid_1562345085.70573284">wfid_1562345085.70573284</a>,310,K2O7Zn6,<a href="https://materialsproject.org/materials/mp-559112/">mp-559112</a>,<a href="https://materialsproject.org/materials/mp-540728/">mp-540728</a>,102,136,2.5,-0.001,0.221,0.795
<a href="candidate.html?wfid=wfid_1562345085.94165367">wfid_1562345085.94165367</a>,13,Ag3IS,<a href="https://materialsproject.org/materials/mp-22995/">mp-22995</a>,<a href="https://materialsproject.org/materials/mp-676561/">mp-676561</a>,146,155,11.7,0.011,1.148,0.513
<a href="candidate.html?wfid=wfid_1562345086.15212454">wfid_1562345086.15212454</a>,21,Al3F19Pb5,<a href="https://materialsproject.org/materials/mp-541732/">mp-541732</a>,<a href="https://materialsproject.org/materials/mp-557911/">mp-557911</a>,108,140,13.9,0.020,0.764,5.174
<a href="candidate.html?wfid=wfid_1562345086.50809338">wfid_1562345086.50809338</a>,279,H3LaO3,<a href="https://materialsproject.org/materials/mp-625733/">mp-625733</a>,<a href="https://materialsproject.org/materials/mp-625394/">mp-625394</a>,173,176,17.9,-0.002,0.189,4.000
<a href="candidate.html?wfid=wfid_1562345086.57526556">wfid_1562345086.57526556</a>,331,LiNbO3,<a href="https://materialsproject.org/materials/mp-3731/">mp-3731</a>,<a href="https://materialsproject.org/materials/mp-552588/">mp-552588</a>,161,167,84.5,0.031,1.339,3.361
<a href="candidate.html?wfid=wfid_1562345086.70080946">wfid_1562345086.70080946</a>,282,H3O3Y,<a href="https://materialsproject.org/materials/mp-625677/">mp-625677</a>,<a href="https://materialsproject.org/materials/mp-24076/">mp-24076</a>,173,176,7.7,-0.001,0.088,3.890
<a href="candidate.html?wfid=wfid_1562345086.82500871">wfid_1562345086.82500871</a>,386,O2Si,<a href="https://materialsproject.org/materials/mp-554946/">mp-554946</a>,<a href="https://materialsproject.org/materials/mp-644923/">mp-644923</a>,44,119,0.0,0.005,0.575,5.709
<a href="candidate.html?wfid=wfid_1562345087.78522502">wfid_1562345087.78522502</a>,138,Ca5ClO12P3,<a href="https://materialsproject.org/materials/mp-39460/">mp-39460</a>,<a href="https://materialsproject.org/materials/mp-554236/">mp-554236</a>,173,176,2.1,0.001,0.446,5.369
<a href="candidate.html?wfid=wfid_1562345087.96868747">wfid_1562345087.96868747</a>,401,O3W,<a href="https://materialsproject.org/materials/mp-32662/">mp-32662</a>,<a href="https://materialsproject.org/materials/mp-32777/">mp-32777</a>,185,193,21.0,0.001,0.242,1.479
<a href="candidate.html?wfid=wfid_1562345088.07662185">wfid_1562345088.07662185</a>,214,F3Nd,<a href="https://materialsproject.org/materials/mp-18511/">mp-18511</a>,<a href="https://materialsproject.org/materials/mp-18074/">mp-18074</a>,185,193,17.6,0.171,1.143,7.658
<a href="candidate.html?wfid=wfid_1562345088.40370432">wfid_1562345088.40370432</a>,38,AlN,<a href="https://materialsproject.org/materials/mp-661/">mp-661</a>,<a href="https://materialsproject.org/materials/mp-13178/">mp-13178</a>,186,194,133.0,0.115,0.664,4.063
<a href="candidate.html?wfid=wfid_1562345088.64692719">wfid_1562345088.64692719</a>,85,BiCl8F4H3K6,<a href="https://materialsproject.org/materials/mp-696998/">mp-696998</a>,<a href="https://materialsproject.org/materials/mp-723540/">mp-723540</a>,186,194,0.1,-0.001,0.161,4.192
<a href="candidate.html?wfid=wfid_1562345089.13746210">wfid_1562345089.13746210</a>,66,BaNiO3,<a href="https://materialsproject.org/materials/mp-19241/">mp-19241</a>,<a href="https://materialsproject.org/materials/mp-19138/">mp-19138</a>,186,194,3.7,0.000,0.046,1.512
<a href="candidate.html?wfid=wfid_1562345089.24703674">wfid_1562345089.24703674</a>,11,Ag3IS,<a href="https://materialsproject.org/materials/mp-675879/">mp-675879</a>,<a href="https://materialsproject.org/materials/mp-676561/">mp-676561</a>,4,155,0.7,0.002,1.020,0.296
<a href="candidate.html?wfid=wfid_1562345090.19555210">wfid_1562345090.19555210</a>,399,O3W,<a href="https://materialsproject.org/materials/mp-32662/">mp-32662</a>,<a href="https://materialsproject.org/materials/mp-559175/">mp-559175</a>,185,191,21.0,0.001,0.127,1.479
<a href="candidate.html?wfid=wfid_1562345090.28098999">wfid_1562345090.28098999</a>,400,O3W,<a href="https://materialsproject.org/materials/mp-32662/">mp-32662</a>,<a href="https://materialsproject.org/materials/mp-715590/">mp-715590</a>,185,191,21.0,0.001,0.127,1.479
<a href="candidate.html?wfid=wfid_1562345090.37034900">wfid_1562345090.37034900</a>,110,CCs4O4,<a href="https://materialsproject.org/materials/mp-562815/">mp-562815</a>,<a href="https://materialsproject.org/materials/mp-605824/">mp-605824</a>,146,215,1.7,-0.003,0.289,1.598
<a href="candidate.html?wfid=wfid_1562345090.67222161">wfid_1562345090.67222161</a>,84,Bi4O12Ti3,<a href="https://materialsproject.org/materials/mp-622198/">mp-622198</a>,<a href="https://materialsproject.org/materials/mp-23335/">mp-23335</a>,41,139,11.5,0.023,0.486,1.612
<a href="candidate.html?wfid=wfid_1562345091.11202201">wfid_1562345091.11202201</a>,117,CK4O4,<a href="https://materialsproject.org/materials/mp-545630/">mp-545630</a>,<a href="https://materialsproject.org/materials/mp-551736/">mp-551736</a>,160,215,14.6,-0.002,0.584,1.949
<a href="candidate.html?wfid=wfid_1562345091.21940324">wfid_1562345091.21940324</a>,311,K3S4Sb,<a href="https://materialsproject.org/materials/mp-9781/">mp-9781</a>,<a href="https://materialsproject.org/materials/mp-9911/">mp-9911</a>,36,217,1.0,0.008,0.736,2.168
<a href="candidate.html?wfid=wfid_1562345091.36271002">wfid_1562345091.36271002</a>,131,CO4Rb4,<a href="https://materialsproject.org/materials/mp-550314/">mp-550314</a>,<a href="https://materialsproject.org/materials/mp-546320/">mp-546320</a>,146,215,0.6,-0.001,0.120,1.722
<a href="candidate.html?wfid=wfid_1562345091.53870848">wfid_1562345091.53870848</a>,126,CNa4O4,<a href="https://materialsproject.org/materials/mp-552623/">mp-552623</a>,<a href="https://materialsproject.org/materials/mp-551886/">mp-551886</a>,146,215,3.6,-0.001,0.151,1.901
<a href="candidate.html?wfid=wfid_1562345091.78627029">wfid_1562345091.78627029</a>,275,H2O4Sn3,<a href="https://materialsproject.org/materials/mp-625789/">mp-625789</a>,<a href="https://materialsproject.org/materials/mp-625541/">mp-625541</a>,9,114,1.6,-0.008,0.675,2.466
<a href="candidate.html?wfid=wfid_1562345092.46694443">wfid_1562345092.46694443</a>,116,CK4O4,<a href="https://materialsproject.org/materials/mp-545387/">mp-545387</a>,<a href="https://materialsproject.org/materials/mp-551736/">mp-551736</a>,146,215,2.6,-0.001,0.171,2.277
<a href="candidate.html?wfid=wfid_1562345092.64050822">wfid_1562345092.64050822</a>,158,Cl3CsPb,<a href="https://materialsproject.org/materials/mp-675524/">mp-675524</a>,<a href="https://materialsproject.org/materials/mp-23037/">mp-23037</a>,38,221,2.3,0.007,0.580,2.580
<a href="candidate.html?wfid=wfid_1562345092.72215049">wfid_1562345092.72215049</a>,127,CNa4O4,<a href="https://materialsproject.org/materials/mp-552941/">mp-552941</a>,<a href="https://materialsproject.org/materials/mp-551886/">mp-551886</a>,146,215,56.2,0.153,1.358,2.160
<a href="candidate.html?wfid=wfid_1562345092.91429073">wfid_1562345092.91429073</a>,80,Bi2O9SrTa2,<a href="https://materialsproject.org/materials/mp-23089/">mp-23089</a>,<a href="https://materialsproject.org/materials/mp-554675/">mp-554675</a>,36,139,36.9,0.028,0.547,2.490
<a href="candidate.html?wfid=wfid_1562345093.12462394">wfid_1562345093.12462394</a>,81,Bi2O9SrTa2,<a href="https://materialsproject.org/materials/mp-559951/">mp-559951</a>,<a href="https://materialsproject.org/materials/mp-554675/">mp-554675</a>,41,139,38.3,0.019,0.514,2.301
<a href="candidate.html?wfid=wfid_1562345093.29957585">wfid_1562345093.29957585</a>,296,HNaO,<a href="https://materialsproject.org/materials/mp-626000/">mp-626000</a>,<a href="https://materialsproject.org/materials/mp-23891/">mp-23891</a>,4,63,10.7,0.001,0.196,2.988
<a href="candidate.html?wfid=wfid_1562345093.42856192">wfid_1562345093.42856192</a>,392,O3ScY,<a href="https://materialsproject.org/materials/mp-769007/">mp-769007</a>,<a href="https://materialsproject.org/materials/mp-768479/">mp-768479</a>,185,194,6.6,0.011,0.321,3.135
<a href="candidate.html?wfid=wfid_1562345093.59972440">wfid_1562345093.59972440</a>,253,GaO3Sc,<a href="https://materialsproject.org/materials/mp-769079/">mp-769079</a>,<a href="https://materialsproject.org/materials/mp-754165/">mp-754165</a>,185,194,10.0,0.013,0.406,3.157
<a href="candidate.html?wfid=wfid_1562345093.87340147">wfid_1562345093.87340147</a>,195,CsF3Pb,<a href="https://materialsproject.org/materials/mp-20282/">mp-20282</a>,<a href="https://materialsproject.org/materials/mp-5811/">mp-5811</a>,161,221,0.7,0.005,0.451,3.352
<a href="candidate.html?wfid=wfid_1562345093.97216898">wfid_1562345093.97216898</a>,121,CLi4O4,<a href="https://materialsproject.org/materials/mp-550593/">mp-550593</a>,<a href="https://materialsproject.org/materials/mp-546202/">mp-546202</a>,160,215,16.6,0.003,0.230,4.210
<a href="candidate.html?wfid=wfid_1562345094.09550293">wfid_1562345094.09550293</a>,249,GaLuO3,<a href="https://materialsproject.org/materials/mp-768505/">mp-768505</a>,<a href="https://materialsproject.org/materials/mp-755342/">mp-755342</a>,185,194,8.0,0.021,0.332,2.887
<a href="candidate.html?wfid=wfid_1562345094.24965045">wfid_1562345094.24965045</a>,371,O23Rb6Si10,<a href="https://materialsproject.org/materials/mp-555837/">mp-555837</a>,<a href="https://materialsproject.org/materials/mp-561189/">mp-561189</a>,38,189,0.5,0.008,0.653,4.236
<a href="candidate.html?wfid=wfid_1562345094.48631430">wfid_1562345094.48631430</a>,341,LiO12P3Zr2,<a href="https://materialsproject.org/materials/mp-681439/">mp-681439</a>,<a href="https://materialsproject.org/materials/mp-541661/">mp-541661</a>,5,167,8.0,0.003,1.229,4.223
<a href="candidate.html?wfid=wfid_1562345094.99343391">wfid_1562345094.99343391</a>,370,O23Rb6Si10,<a href="https://materialsproject.org/materials/mp-27376/">mp-27376</a>,<a href="https://materialsproject.org/materials/mp-561189/">mp-561189</a>,38,189,0.1,0.013,0.726,4.330
<a href="candidate.html?wfid=wfid_1562345095.48459868">wfid_1562345095.48459868</a>,271,H2O4PRb,<a href="https://materialsproject.org/materials/mp-23667/">mp-23667</a>,<a href="https://materialsproject.org/materials/mp-642831/">mp-642831</a>,43,122,5.4,0.006,0.325,5.247
<a href="candidate.html?wfid=wfid_1562345095.70366936">wfid_1562345095.70366936</a>,24,AlBiO3,<a href="https://materialsproject.org/materials/mvc-3494/">mvc-3494</a>,<a href="https://materialsproject.org/materials/mvc-13972/">mvc-13972</a>,185,194,4.8,0.348,1.430,0.771