Workflow id,Search id,Formula,Polar id,Nonpolar id,Polar Spacegroup,Nonpolar Spacegroup,Polarization,Energy Difference,Max Distortion,Band Gap
<a href="candidate.html?wfid=wfid_1562345095.95394592">wfid_1562345095.95394592</a>,120,CLi4O4,<a href="https://materialsproject.org/materials/mp-550498/">mp-550498</a>,<a href="https://materialsproject.org/materials/mp-551740/">mp-551740</a>,5,121,0.1,-0.001,0.213,4.756
<a href="candidate.html?wfid=wfid_1562345096.05165490">wfid_1562345096.05165490</a>,71,BaO3Ti,<a href="https://materialsproject.org/materials/mp-5020/">mp-5020</a>,<a href="https://materialsproject.org/materials/mp-2998/">mp-2998</a>,160,221,49.9,0.014,0.204,2.525
<a href="candidate.html?wfid=wfid_1562345096.22998438">wfid_1562345096.22998438</a>,257,H2KO4P,<a href="https://materialsproject.org/materials/mp-23959/">mp-23959</a>,<a href="https://materialsproject.org/materials/mp-696752/">mp-696752</a>,43,122,5.2,0.005,0.234,5.430
<a href="candidate.html?wfid=wfid_1562345096.42937982">wfid_1562345096.42937982</a>,360,NaNbO3,<a href="https://materialsproject.org/materials/mp-4681/">mp-4681</a>,<a href="https://materialsproject.org/materials/mp-4419/">mp-4419</a>,26,127,53.9,0.015,0.420,2.357
<a href="candidate.html?wfid=wfid_1562345096.53537136">wfid_1562345096.53537136</a>,315,KNbO3,<a href="https://materialsproject.org/materials/mp-7375/">mp-7375</a>,<a href="https://materialsproject.org/materials/mp-935811/">mp-935811</a>,160,221,50.7,0.013,0.177,2.311
<a href="candidate.html?wfid=wfid_1562345096.61294252">wfid_1562345096.61294252</a>,313,KNbO3,<a href="https://materialsproject.org/materials/mp-5246/">mp-5246</a>,<a href="https://materialsproject.org/materials/mp-935811/">mp-935811</a>,38,221,51.3,0.013,0.217,2.092
<a href="candidate.html?wfid=wfid_1562345096.76465275">wfid_1562345096.76465275</a>,79,Bi2Nb2O9Pb,<a href="https://materialsproject.org/materials/mp-583454/">mp-583454</a>,<a href="https://materialsproject.org/materials/mp-23101/">mp-23101</a>,36,139,38.1,0.041,0.521,2.316
<a href="candidate.html?wfid=wfid_1562345097.07894293">wfid_1562345097.07894293</a>,18,Al2BaO4,<a href="https://materialsproject.org/materials/mp-4202/">mp-4202</a>,<a href="https://materialsproject.org/materials/mp-619456/">mp-619456</a>,173,182,0.3,0.004,0.558,4.106
<a href="candidate.html?wfid=wfid_1562345097.33024928">wfid_1562345097.33024928</a>,68,BaO3Ti,<a href="https://materialsproject.org/materials/mp-5777/">mp-5777</a>,<a href="https://materialsproject.org/materials/mp-2998/">mp-2998</a>,38,221,49.9,0.014,0.241,2.355
<a href="candidate.html?wfid=wfid_1562345097.63538177">wfid_1562345097.63538177</a>,12,Ag3IS,<a href="https://materialsproject.org/materials/mp-675879/">mp-675879</a>,<a href="https://materialsproject.org/materials/mp-558189/">mp-558189</a>,4,221,0.7,0.041,0.773,0.296
<a href="candidate.html?wfid=wfid_1562345097.68976538">wfid_1562345097.68976538</a>,19,Al2BaO4,<a href="https://materialsproject.org/materials/mp-4202/">mp-4202</a>,<a href="https://materialsproject.org/materials/mp-3828/">mp-3828</a>,173,182,0.3,0.004,0.559,4.106
<a href="candidate.html?wfid=wfid_1562345099.15877093">wfid_1562345099.15877093</a>,379,O2Si,<a href="https://materialsproject.org/materials/mp-555235/">mp-555235</a>,<a href="https://materialsproject.org/materials/mp-7087/">mp-7087</a>,9,194,0.1,0.008,0.784,5.503
<a href="candidate.html?wfid=wfid_1562345100.02925969">wfid_1562345100.02925969</a>,139,CaF2,<a href="https://materialsproject.org/materials/mp-560030/">mp-560030</a>,<a href="https://materialsproject.org/materials/mp-554355/">mp-554355</a>,26,123,16.5,0.058,0.831,6.277
<a href="candidate.html?wfid=wfid_1562345100.87211791">wfid_1562345100.87211791</a>,391,O3SbY,<a href="https://materialsproject.org/materials/mvc-3460/">mvc-3460</a>,<a href="https://materialsproject.org/materials/mvc-14740/">mvc-14740</a>,185,194,7.5,0.017,0.457,1.477
<a href="candidate.html?wfid=wfid_1562345100.97005996">wfid_1562345100.97005996</a>,96,BiO3Y,<a href="https://materialsproject.org/materials/mvc-3479/">mvc-3479</a>,<a href="https://materialsproject.org/materials/mvc-15941/">mvc-15941</a>,185,194,9.7,0.035,0.646,2.054
<a href="candidate.html?wfid=wfid_1562345101.21075848">wfid_1562345101.21075848</a>,309,K2O4Se,<a href="https://materialsproject.org/materials/mp-557025/">mp-557025</a>,<a href="https://materialsproject.org/materials/mp-5226/">mp-5226</a>,33,62,0.7,0.000,0.405,3.654
<a href="candidate.html?wfid=wfid_1562345101.99111429">wfid_1562345101.99111429</a>,225,F6LiV,<a href="https://materialsproject.org/materials/mp-765122/">mp-765122</a>,<a href="https://materialsproject.org/materials/mp-765966/">mp-765966</a>,33,225,1.3,-0.024,1.704,3.161
<a href="candidate.html?wfid=wfid_1562345103.54083952">wfid_1562345103.54083952</a>,256,H2KO4P,<a href="https://materialsproject.org/materials/mp-757909/">mp-757909</a>,<a href="https://materialsproject.org/materials/mp-24262/">mp-24262</a>,9,14,0.5,0.003,0.361,5.244
<a href="candidate.html?wfid=wfid_1562345104.65432837">wfid_1562345104.65432837</a>,95,BiO3Sc,<a href="https://materialsproject.org/materials/mp-555313/">mp-555313</a>,<a href="https://materialsproject.org/materials/mp-550008/">mp-550008</a>,9,221,5.7,0.324,0.730,2.699
<a href="candidate.html?wfid=wfid_1562345104.79543572">wfid_1562345104.79543572</a>,23,AlBiO3,<a href="https://materialsproject.org/materials/mp-551918/">mp-551918</a>,<a href="https://materialsproject.org/materials/mp-23080/">mp-23080</a>,161,221,80.3,0.068,0.477,3.076
<a href="candidate.html?wfid=wfid_1562345104.93967568">wfid_1562345104.93967568</a>,92,BiInO3,<a href="https://materialsproject.org/materials/mp-556892/">mp-556892</a>,<a href="https://materialsproject.org/materials/mp-545379/">mp-545379</a>,33,221,64.7,0.467,0.817,2.774
<a href="candidate.html?wfid=wfid_1562345105.02231844">wfid_1562345105.02231844</a>,394,O3Te,<a href="https://materialsproject.org/materials/mvc-14734/">mvc-14734</a>,<a href="https://materialsproject.org/materials/mvc-14413/">mvc-14413</a>,185,194,0.0,0.002,0.504,0.548
<a href="candidate.html?wfid=wfid_1562345105.66292123">wfid_1562345105.66292123</a>,373,O2Si,<a href="https://materialsproject.org/materials/mp-555891/">mp-555891</a>,<a href="https://materialsproject.org/materials/mp-7648/">mp-7648</a>,4,20,0.0,-0.000,0.341,5.389
<a href="candidate.html?wfid=wfid_1562345106.21088335">wfid_1562345106.21088335</a>,125,CNa4O4,<a href="https://materialsproject.org/materials/mp-645295/">mp-645295</a>,<a href="https://materialsproject.org/materials/mp-551886/">mp-551886</a>,8,215,12.6,-0.000,0.670,1.716
<a href="candidate.html?wfid=wfid_1562345106.35940545">wfid_1562345106.35940545</a>,128,CO4Rb4,<a href="https://materialsproject.org/materials/mp-551176/">mp-551176</a>,<a href="https://materialsproject.org/materials/mp-550679/">mp-550679</a>,5,23,14.6,-0.004,0.742,1.406
<a href="candidate.html?wfid=wfid_1562345106.46698464">wfid_1562345106.46698464</a>,165,Cl4K2Zn,<a href="https://materialsproject.org/materials/mp-647575/">mp-647575</a>,<a href="https://materialsproject.org/materials/mp-653454/">mp-653454</a>,33,62,0.5,0.013,0.679,4.507
<a href="candidate.html?wfid=wfid_1562345106.82651466">wfid_1562345106.82651466</a>,166,Cl4Rb2Zn,<a href="https://materialsproject.org/materials/mp-568350/">mp-568350</a>,<a href="https://materialsproject.org/materials/mp-608314/">mp-608314</a>,33,62,0.5,0.006,0.924,4.522
<a href="candidate.html?wfid=wfid_1562345107.17640773">wfid_1562345107.17640773</a>,51,B7ClMg3O13,<a href="https://materialsproject.org/materials/mp-23087/">mp-23087</a>,<a href="https://materialsproject.org/materials/mp-23617/">mp-23617</a>,29,219,0.3,0.010,0.496,5.689
<a href="candidate.html?wfid=wfid_1562345108.76820757">wfid_1562345108.76820757</a>,46,B2K3Nb3O12,<a href="https://materialsproject.org/materials/mp-557711/">mp-557711</a>,<a href="https://materialsproject.org/materials/mp-15248/">mp-15248</a>,26,189,0.1,0.004,0.219,2.377
<a href="candidate.html?wfid=wfid_1562345109.75844212">wfid_1562345109.75844212</a>,119,CLi4O4,<a href="https://materialsproject.org/materials/mp-550320/">mp-550320</a>,<a href="https://materialsproject.org/materials/mp-551740/">mp-551740</a>,5,121,49.0,0.014,1.161,5.049
<a href="candidate.html?wfid=wfid_1562345111.73469268">wfid_1562345111.73469268</a>,106,C2HO2,<a href="https://materialsproject.org/materials/mp-675395/">mp-675395</a>,<a href="https://materialsproject.org/materials/mp-23680/">mp-23680</a>,6,11,3.4,-0.003,0.313,2.830
<a href="candidate.html?wfid=wfid_1562345111.91150344">wfid_1562345111.91150344</a>,132,CO4Rb4,<a href="https://materialsproject.org/materials/mp-551690/">mp-551690</a>,<a href="https://materialsproject.org/materials/mp-546320/">mp-546320</a>,160,215,42.8,-0.024,1.945,0.357
<a href="candidate.html?wfid=wfid_1562345112.11438196">wfid_1562345112.11438196</a>,5,Ag2S,<a href="https://materialsproject.org/materials/mp-560025/">mp-560025</a>,<a href="https://materialsproject.org/materials/mp-556225/">mp-556225</a>,4,11,21.1,-0.076,0.727,0.402
<a href="candidate.html?wfid=wfid_1562345112.28048731">wfid_1562345112.28048731</a>,7,Ag2S,<a href="https://materialsproject.org/materials/mp-560025/">mp-560025</a>,<a href="https://materialsproject.org/materials/mp-32791/">mp-32791</a>,4,64,17.6,0.003,0.814,0.402
<a href="candidate.html?wfid=wfid_1562345112.71860945">wfid_1562345112.71860945</a>,61,BaCl5La,<a href="https://materialsproject.org/materials/mp-770427/">mp-770427</a>,<a href="https://materialsproject.org/materials/mp-770125/">mp-770125</a>,4,62,26.1,0.014,1.524,3.984
<a href="candidate.html?wfid=wfid_1562345113.04187974">wfid_1562345113.04187974</a>,25,AlCH2NaO5,<a href="https://materialsproject.org/materials/mp-699136/">mp-699136</a>,<a href="https://materialsproject.org/materials/mp-644506/">mp-644506</a>,46,74,0.8,-0.001,0.084,5.038
<a href="candidate.html?wfid=wfid_1562345113.37855627">wfid_1562345113.37855627</a>,75,BeF4H8N2,<a href="https://materialsproject.org/materials/mp-24614/">mp-24614</a>,<a href="https://materialsproject.org/materials/mp-604245/">mp-604245</a>,33,62,0.6,0.010,0.553,6.645
<a href="candidate.html?wfid=wfid_1562345114.09410592">wfid_1562345114.09410592</a>,97,Br3CsGe,<a href="https://materialsproject.org/materials/mp-642739/">mp-642739</a>,<a href="https://materialsproject.org/materials/mp-570223/">mp-570223</a>,8,221,19.3,0.015,0.331,1.736
<a href="candidate.html?wfid=wfid_1562345114.14736365">wfid_1562345114.14736365</a>,272,H2O4S,<a href="https://materialsproject.org/materials/mp-625475/">mp-625475</a>,<a href="https://materialsproject.org/materials/mp-690733/">mp-690733</a>,5,15,20.4,-0.003,0.983,6.142
<a href="candidate.html?wfid=wfid_1562345114.26291952">wfid_1562345114.26291952</a>,76,BeF4H8N2,<a href="https://materialsproject.org/materials/mp-24614/">mp-24614</a>,<a href="https://materialsproject.org/materials/mp-720982/">mp-720982</a>,33,62,0.6,0.010,0.546,6.645
<a href="candidate.html?wfid=wfid_1562345114.85602856">wfid_1562345114.85602856</a>,114,CK4O4,<a href="https://materialsproject.org/materials/mp-551561/">mp-551561</a>,<a href="https://materialsproject.org/materials/mp-549687/">mp-549687</a>,5,121,16.6,-0.005,1.288,1.995
<a href="candidate.html?wfid=wfid_1562345115.11396023">wfid_1562345115.11396023</a>,223,F5V,<a href="https://materialsproject.org/materials/mp-765140/">mp-765140</a>,<a href="https://materialsproject.org/materials/mvc-14312/">mvc-14312</a>,9,15,1.0,0.003,2.017,2.764
<a href="candidate.html?wfid=wfid_1562345115.26181400">wfid_1562345115.26181400</a>,224,F5V,<a href="https://materialsproject.org/materials/mp-766786/">mp-766786</a>,<a href="https://materialsproject.org/materials/mvc-14312/">mvc-14312</a>,9,15,29.7,0.023,1.578,3.261
<a href="candidate.html?wfid=wfid_1562345115.59588544">wfid_1562345115.59588544</a>,130,CO4Rb4,<a href="https://materialsproject.org/materials/mp-551176/">mp-551176</a>,<a href="https://materialsproject.org/materials/mp-547898/">mp-547898</a>,5,121,14.6,-0.001,2.257,1.406
<a href="candidate.html?wfid=wfid_1562345115.68239992">wfid_1562345115.68239992</a>,83,Bi4O12Ti3,<a href="https://materialsproject.org/materials/mp-23427/">mp-23427</a>,<a href="https://materialsproject.org/materials/mp-23335/">mp-23335</a>,41,139,17.0,0.063,0.561,2.439
<a href="candidate.html?wfid=wfid_1562345116.34885480">wfid_1562345116.34885480</a>,171,ClH,<a href="https://materialsproject.org/materials/mp-684609/">mp-684609</a>,<a href="https://materialsproject.org/materials/mp-634101/">mp-634101</a>,44,139,57.4,0.273,1.144,5.185
<a href="candidate.html?wfid=wfid_1562345116.92380413">wfid_1562345116.92380413</a>,124,CNa4O4,<a href="https://materialsproject.org/materials/mp-13274/">mp-13274</a>,<a href="https://materialsproject.org/materials/mp-546707/">mp-546707</a>,5,121,39.2,0.010,1.277,2.183
<a href="candidate.html?wfid=wfid_1562345117.74137700">wfid_1562345117.74137700</a>,193,Cs2N2Tb6Te7,<a href="https://materialsproject.org/materials/mp-646007/">mp-646007</a>,<a href="https://materialsproject.org/materials/mp-655613/">mp-655613</a>,8,12,0.2,0.000,0.072,0.769
<a href="candidate.html?wfid=wfid_1562345117.90645376">wfid_1562345117.90645376</a>,357,N3Na,<a href="https://materialsproject.org/materials/mp-634410/">mp-634410</a>,<a href="https://materialsproject.org/materials/mp-570538/">mp-570538</a>,5,12,51.8,-0.013,1.551,4.111
<a href="candidate.html?wfid=wfid_1562345118.41939438">wfid_1562345118.41939438</a>,145,CdCl2,<a href="https://materialsproject.org/materials/mp-632403/">mp-632403</a>,<a href="https://materialsproject.org/materials/mp-695850/">mp-695850</a>,5,12,48.4,-0.046,1.481,3.120
<a href="candidate.html?wfid=wfid_1562345118.45837326">wfid_1562345118.45837326</a>,215,F3PbRb,<a href="https://materialsproject.org/materials/mp-674508/">mp-674508</a>,<a href="https://materialsproject.org/materials/mp-21043/">mp-21043</a>,9,221,4.0,0.034,0.775,3.784
<a href="candidate.html?wfid=wfid_1562345118.64838432">wfid_1562345118.64838432</a>,356,N2O6Zn,<a href="https://materialsproject.org/materials/mp-778973/">mp-778973</a>,<a href="https://materialsproject.org/materials/mp-772617/">mp-772617</a>,29,205,1.1,-0.004,1.144,3.272
<a href="candidate.html?wfid=wfid_1562345118.94396078">wfid_1562345118.94396078</a>,353,MoO3,<a href="https://materialsproject.org/materials/mp-715584/">mp-715584</a>,<a href="https://materialsproject.org/materials/mvc-12752/">mvc-12752</a>,7,62,4.7,0.064,0.671,1.925
<a href="candidate.html?wfid=wfid_1562345119.24225097">wfid_1562345119.24225097</a>,345,MgN2O6,<a href="https://materialsproject.org/materials/mp-776410/">mp-776410</a>,<a href="https://materialsproject.org/materials/mp-771046/">mp-771046</a>,29,205,0.7,-0.009,1.202,3.547