Workflow id,Search id,Formula,Polar id,Nonpolar id,Polar Spacegroup,Nonpolar Spacegroup,Polarization,Energy Difference,Max Distortion,Band Gap
<a href="candidate.html?wfid=wfid_1562199295.93469828">wfid_1562199295.93469828</a>,230,Fe2Li3O12P3,<a href="https://materialsproject.org/materials/mp-762728/">mp-762728</a>,<a href="https://materialsproject.org/materials/mp-853256/">mp-853256</a>,1,2,--,0.009,1.471,2.456
<a href="candidate.html?wfid=wfid_1562199296.38256579">wfid_1562199296.38256579</a>,369,O13V7,<a href="https://materialsproject.org/materials/mp-715598/">mp-715598</a>,<a href="https://materialsproject.org/materials/mp-556332/">mp-556332</a>,1,2,--,-0.002,0.274,0.547
<a href="candidate.html?wfid=wfid_1562345062.56056403">wfid_1562345062.56056403</a>,176,CoLiO4P,<a href="https://materialsproject.org/materials/mp-761753/">mp-761753</a>,<a href="https://materialsproject.org/materials/mp-761979/">mp-761979</a>,4,62,--,0.005,1.655,2.620
<a href="candidate.html?wfid=wfid_1562345066.80008603">wfid_1562345066.80008603</a>,232,Fe3O4,<a href="https://materialsproject.org/materials/mp-612405/">mp-612405</a>,<a href="https://materialsproject.org/materials/mp-715614/">mp-715614</a>,8,12,--,0.003,0.347,1.043
<a href="candidate.html?wfid=wfid_1562345067.15640753">wfid_1562345067.15640753</a>,377,O2Si,<a href="https://materialsproject.org/materials/mp-553881/">mp-553881</a>,<a href="https://materialsproject.org/materials/mp-10064/">mp-10064</a>,7,225,--,0.911,2.086,3.597
<a href="candidate.html?wfid=wfid_1562345067.95646032">wfid_1562345067.95646032</a>,396,O3V2,<a href="https://materialsproject.org/materials/mp-553955/">mp-553955</a>,<a href="https://materialsproject.org/materials/mp-715514/">mp-715514</a>,9,15,--,-0.617,1.717,0.990
<a href="candidate.html?wfid=wfid_1562345070.95947283">wfid_1562345070.95947283</a>,332,LiNi4O12P3,<a href="https://materialsproject.org/materials/mp-868339/">mp-868339</a>,<a href="https://materialsproject.org/materials/mp-868378/">mp-868378</a>,9,15,--,0.005,1.515,2.530
<a href="candidate.html?wfid=wfid_1562345071.21174354">wfid_1562345071.21174354</a>,298,HO2V,<a href="https://materialsproject.org/materials/mp-626791/">mp-626791</a>,<a href="https://materialsproject.org/materials/mp-626796/">mp-626796</a>,26,62,--,0.005,0.134,1.504
<a href="candidate.html?wfid=wfid_1562345071.60128680">wfid_1562345071.60128680</a>,299,HO2V,<a href="https://materialsproject.org/materials/mp-626791/">mp-626791</a>,<a href="https://materialsproject.org/materials/mp-626787/">mp-626787</a>,26,62,--,-0.003,0.149,1.504
<a href="candidate.html?wfid=wfid_1562345073.19170804">wfid_1562345073.19170804</a>,184,CrLi3O4,<a href="https://materialsproject.org/materials/mp-770632/">mp-770632</a>,<a href="https://materialsproject.org/materials/mp-777303/">mp-777303</a>,31,65,--,0.086,2.310,1.133
<a href="candidate.html?wfid=wfid_1562345080.47287897">wfid_1562345080.47287897</a>,338,LiNiO4P,<a href="https://materialsproject.org/materials/mp-772673/">mp-772673</a>,<a href="https://materialsproject.org/materials/mp-761990/">mp-761990</a>,33,63,--,0.044,1.712,3.331
<a href="candidate.html?wfid=wfid_1562345081.19754088">wfid_1562345081.19754088</a>,218,F4Li2OV,<a href="https://materialsproject.org/materials/mp-764695/">mp-764695</a>,<a href="https://materialsproject.org/materials/mp-780857/">mp-780857</a>,36,63,--,-0.010,1.198,1.690
<a href="candidate.html?wfid=wfid_1562345088.44942336">wfid_1562345088.44942336</a>,364,NaO11V6,<a href="https://materialsproject.org/materials/mp-25156/">mp-25156</a>,<a href="https://materialsproject.org/materials/mp-510616/">mp-510616</a>,186,194,--,-0.000,0.260,0.344
<a href="candidate.html?wfid=wfid_1562345089.52001267">wfid_1562345089.52001267</a>,156,Cl3CrRb,<a href="https://materialsproject.org/materials/mp-568864/">mp-568864</a>,<a href="https://materialsproject.org/materials/mp-568887/">mp-568887</a>,5,12,--,0.006,0.333,0.471
<a href="candidate.html?wfid=wfid_1562345090.03425890">wfid_1562345090.03425890</a>,98,Br3MnRb,<a href="https://materialsproject.org/materials/mp-568231/">mp-568231</a>,<a href="https://materialsproject.org/materials/mp-29763/">mp-29763</a>,185,194,--,0.001,0.475,1.237
<a href="candidate.html?wfid=wfid_1562345090.47289757">wfid_1562345090.47289757</a>,263,H2NiO2,<a href="https://materialsproject.org/materials/mp-626843/">mp-626843</a>,<a href="https://materialsproject.org/materials/mp-626794/">mp-626794</a>,5,166,--,-0.001,0.281,1.865
<a href="candidate.html?wfid=wfid_1562345090.52467225">wfid_1562345090.52467225</a>,65,BaMnO3,<a href="https://materialsproject.org/materials/mp-19267/">mp-19267</a>,<a href="https://materialsproject.org/materials/mp-19156/">mp-19156</a>,185,194,--,0.008,0.571,2.086
<a href="candidate.html?wfid=wfid_1562345093.33885886">wfid_1562345093.33885886</a>,175,CoLi2O4Si,<a href="https://materialsproject.org/materials/mp-764958/">mp-764958</a>,<a href="https://materialsproject.org/materials/mp-764956/">mp-764956</a>,4,20,--,-0.005,1.882,2.940
<a href="candidate.html?wfid=wfid_1562345095.33810901">wfid_1562345095.33810901</a>,90,BiFeO3,<a href="https://materialsproject.org/materials/mp-24932/">mp-24932</a>,<a href="https://materialsproject.org/materials/mp-561388/">mp-561388</a>,161,221,--,0.219,0.696,1.901
<a href="candidate.html?wfid=wfid_1562345097.86901705">wfid_1562345097.86901705</a>,185,CrLiO4P,<a href="https://materialsproject.org/materials/mp-761391/">mp-761391</a>,<a href="https://materialsproject.org/materials/mp-25507/">mp-25507</a>,4,62,--,-0.003,0.463,2.364
<a href="candidate.html?wfid=wfid_1562345097.97802299">wfid_1562345097.97802299</a>,248,FeO3Y,<a href="https://materialsproject.org/materials/mvc-3751/">mvc-3751</a>,<a href="https://materialsproject.org/materials/mvc-3556/">mvc-3556</a>,185,194,--,0.020,0.290,1.293
<a href="candidate.html?wfid=wfid_1562345098.18604043">wfid_1562345098.18604043</a>,326,LiMnO4P,<a href="https://materialsproject.org/materials/mp-761562/">mp-761562</a>,<a href="https://materialsproject.org/materials/mp-765871/">mp-765871</a>,33,63,--,-0.001,1.086,3.282
<a href="candidate.html?wfid=wfid_1562345099.25830051">wfid_1562345099.25830051</a>,52,B7IMn3O13,<a href="https://materialsproject.org/materials/mp-31917/">mp-31917</a>,<a href="https://materialsproject.org/materials/mp-565322/">mp-565322</a>,29,219,--,0.005,0.471,3.708
<a href="candidate.html?wfid=wfid_1562345100.48228079">wfid_1562345100.48228079</a>,189,CrO3,<a href="https://materialsproject.org/materials/mvc-13999/">mvc-13999</a>,<a href="https://materialsproject.org/materials/mvc-11097/">mvc-11097</a>,185,194,--,0.413,2.260,1.185
<a href="candidate.html?wfid=wfid_1562345109.06349917">wfid_1562345109.06349917</a>,406,O7RuSm3,<a href="https://materialsproject.org/materials/mp-555525/">mp-555525</a>,<a href="https://materialsproject.org/materials/mp-5779/">mp-5779</a>,33,63,--,0.006,0.564,0.132
<a href="candidate.html?wfid=wfid_1562345109.33811762">wfid_1562345109.33811762</a>,405,O7OsSm3,<a href="https://materialsproject.org/materials/mp-555639/">mp-555639</a>,<a href="https://materialsproject.org/materials/mp-5447/">mp-5447</a>,33,63,--,0.014,0.573,0.245
<a href="candidate.html?wfid=wfid_1562345113.93677372">wfid_1562345113.93677372</a>,291,H5NO2,<a href="https://materialsproject.org/materials/mp-625109/">mp-625109</a>,<a href="https://materialsproject.org/materials/mp-625108/">mp-625108</a>,7,14,--,0.002,0.768,1.704
<a href="candidate.html?wfid=wfid_1562345116.15943930">wfid_1562345116.15943930</a>,180,CoO6Si2,<a href="https://materialsproject.org/materials/mvc-12012/">mvc-12012</a>,<a href="https://materialsproject.org/materials/mvc-11366/">mvc-11366</a>,5,15,--,0.002,0.099,0.452
<a href="candidate.html?wfid=wfid_1562345116.41517559">wfid_1562345116.41517559</a>,231,Fe2O4Zn,<a href="https://materialsproject.org/materials/mvc-12661/">mvc-12661</a>,<a href="https://materialsproject.org/materials/mvc-15076/">mvc-15076</a>,6,62,--,0.000,0.131,1.631
<a href="candidate.html?wfid=wfid_1562345117.00610059">wfid_1562345117.00610059</a>,141,CaFe2O4,<a href="https://materialsproject.org/materials/mvc-12583/">mvc-12583</a>,<a href="https://materialsproject.org/materials/mvc-8188/">mvc-8188</a>,8,12,--,0.027,1.153,1.549
<a href="candidate.html?wfid=wfid_1562345117.37566277">wfid_1562345117.37566277</a>,201,CuF4Li2,<a href="https://materialsproject.org/materials/mp-753171/">mp-753171</a>,<a href="https://materialsproject.org/materials/mp-753123/">mp-753123</a>,7,64,--,0.009,1.474,0.601
<a href="candidate.html?wfid=wfid_1562345118.53916482">wfid_1562345118.53916482</a>,397,O3V2,<a href="https://materialsproject.org/materials/mp-553955/">mp-553955</a>,<a href="https://materialsproject.org/materials/mp-714906/">mp-714906</a>,9,167,--,0.003,0.868,0.974